 vasp.5.4.4.18Apr17-6-g9f103f2a35 (build Sep 10 2019 21:21:20) complex          
  
 executed on             LinuxIFC date 2019.09.11  08:29:14
 running on   16 total cores
 distrk:  each k-point on   16 cores,    1 groups
 distr:  one band on NCORES_PER_BAND=   1 cores,   16 groups


--------------------------------------------------------------------------------------------------------


 INCAR:
 POTCAR:   PAW_PBE Co 06Sep2000                   

 ----------------------------------------------------------------------------- 
|                                                                             |
|           W    W    AA    RRRRR   N    N  II  N    N   GGGG   !!!           |
|           W    W   A  A   R    R  NN   N  II  NN   N  G    G  !!!           |
|           W    W  A    A  R    R  N N  N  II  N N  N  G       !!!           |
|           W WW W  AAAAAA  RRRRR   N  N N  II  N  N N  G  GGG   !            |
|           WW  WW  A    A  R   R   N   NN  II  N   NN  G    G                |
|           W    W  A    A  R    R  N    N  II  N    N   GGGG   !!!           |
|                                                                             |
|      For optimal performance we recommend to set                            |
|        NCORE= 4 - approx SQRT( number of cores)                             |
|      NCORE specifies how many cores store one orbital (NPAR=cpu/NCORE).     |
|      This setting can  greatly improve the performance of VASP for DFT.     |
|      The default,   NCORE=1            might be grossly inefficient         |
|      on modern multi-core architectures or massively parallel machines.     |
|      Do your own testing !!!!                                               |
|      Unfortunately you need to use the default for GW and RPA calculations. |
|      (for HF NCORE is supported but not extensively tested yet)             |
|                                                                             |
 ----------------------------------------------------------------------------- 

 POTCAR:   PAW_PBE Co 06Sep2000                   
   VRHFIN =Co: d8 s1                                                            
   LEXCH  = PE                                                                  
   EATOM  =   813.5563 eV,   59.7947 Ry                                         
                                                                                
   TITEL  = PAW_PBE Co 06Sep2000                                                
   LULTRA =        F    use ultrasoft PP ?                                      
   IUNSCR =        1    unscreen: 0-lin 1-nonlin 2-no                           
   RPACOR =    2.000    partial core radius                                     
   POMASS =   58.933; ZVAL   =    9.000    mass and valenz                      
   RCORE  =    2.300    outmost cutoff radius                                   
   RWIGS  =    2.460; RWIGS  =    1.302    wigner-seitz radius (au A)           
   ENMAX  =  267.969; ENMIN  =  200.977 eV                                      
   RCLOC  =    1.697    cutoff for local pot                                    
   LCOR   =        T    correct aug charges                                     
   LPAW   =        T    paw PP                                                  
   EAUG   =  477.818                                                            
   DEXC   =    -.016                                                            
   RMAX   =    2.817    core radius for proj-oper                               
   RAUG   =    1.300    factor for augmentation sphere                          
   RDEP   =    2.393    radius for radial grids                                 
   QCUT   =   -4.438; QGAM   =    8.876    optimization parameters              
                                                                                
   Description                                                                  
     l     E      TYP  RCUT    TYP  RCUT                                        
     2   .000     23  2.300                                                     
     2   .000     23  2.300                                                     
     0   .000     23  2.300                                                     
     0   .000     23  2.300                                                     
     1  -.200     23  2.300                                                     
     1   .000     23  2.300                                                     
     3   .000      7   .000                                                     
  local pseudopotential read in
  partial core-charges read in
  atomic valenz-charges read in
  non local Contribution for L=           2  read in
    real space projection operators read in
  non local Contribution for L=           2  read in
    real space projection operators read in
  non local Contribution for L=           0  read in
    real space projection operators read in
  non local Contribution for L=           0  read in
    real space projection operators read in
  non local Contribution for L=           1  read in
    real space projection operators read in
  non local Contribution for L=           1  read in
    real space projection operators read in
    PAW grid and wavefunctions read in
 
   number of l-projection  operators is LMAX  =           6
   number of lm-projection operators is LMMAX =          18
 
 PAW_PBE Co 06Sep2000                   :
 energy of atom  1       EATOM= -813.5563
 kinetic energy error for atom=    0.0255 (will be added to EATOM!!)
 
 
 POSCAR: Co                                      
  positions in direct lattice
  No initial velocities read in
 exchange correlation table for  LEXCH =        8
   RHO(1)=    0.500       N(1)  =     2000
   RHO(2)=  100.500       N(2)  =     4000

 VTST: version 3.2, (02/03/18)

 CHAIN: initializing optimizer
 
 OPT: Using VASP Conjugate-Gradient optimizer
 CHAIN: Read ICHAIN            0
 
 POSCAR: Co                                      
  positions in direct lattice
  No initial velocities read in
 


--------------------------------------------------------------------------------------------------------


 ion  position               nearest neighbor table
   1  0.000  0.000  0.000-   4 2.49   3 2.49   3 2.49   4 2.49   3 2.49   4 2.49
   2  0.000  0.000  0.500-   4 2.49   3 2.49   3 2.49   4 2.49   3 2.49   4 2.49
   3  0.667  0.333  0.250-   1 2.49   2 2.49   1 2.49   2 2.49   1 2.49   2 2.49
   4  0.333  0.667  0.750-   1 2.49   2 2.49   1 2.49   2 2.49   1 2.49   2 2.49
 
  Warning from LATTYP: Monoclinic adjustement (A1->A3, A2->A1, A3->A2)!
  LATTYP: Found a base centered orthorhombic cell.
 ALAT       =     2.4902990500
 B/A-ratio  =     1.7320188112
 C/A-ratio  =     3.2659863232
  
  Lattice vectors:
  
 A1 = (   1.2451495250,   2.1566224000,   0.0000000000)
 A2 = (   1.2451495250,  -2.1566224000,   0.0000000000)
 A3 = (   0.0000000000,   0.0000000000,  -8.1332826380)


Analysis of symmetry for initial positions (statically):
=====================================================================
 Subroutine PRICEL returns:
 Original cell was already a primitive cell.
 

 Routine SETGRP: Setting up the symmetry group for a 
 base centered orthorhombic supercell.


 Subroutine GETGRP returns: Found  8 space group operations
 (whereof  4 operations were pure point group operations)
 out of a pool of  8 trial point group operations.


The static configuration has the point symmetry C_2h.
 The point group associated with its full space group is D_2h.


Analysis of symmetry for dynamics (positions and initial velocities):
=====================================================================
 Subroutine PRICEL returns:
 Original cell was already a primitive cell.
 

 Routine SETGRP: Setting up the symmetry group for a 
 base centered orthorhombic supercell.


 Subroutine GETGRP returns: Found  8 space group operations
 (whereof  4 operations were pure point group operations)
 out of a pool of  8 trial point group operations.


The dynamic configuration has the point symmetry C_2h.
 The point group associated with its full space group is D_2h.


Analysis of structural, dynamic, and magnetic symmetry:
=====================================================================
 Subroutine PRICEL returns:
 Original cell was already a primitive cell.
 

 Routine SETGRP: Setting up the symmetry group for a 
 base centered orthorhombic supercell.


 Subroutine GETGRP returns: Found  8 space group operations
 (whereof  4 operations were pure point group operations)
 out of a pool of  8 trial point group operations.


The magnetic configuration has the point symmetry C_2h.
 The point group associated with its full space group is D_2h.


 Subroutine INISYM returns: Found  8 space group operations
 (whereof  4 operations are pure point group operations),
 and found     1 'primitive' translations

 
 
 KPOINTS: Automatic mesh                          

Automatic generation of k-mesh.
Space group operators:
 irot       det(A)        alpha          n_x          n_y          n_z        tau_x        tau_y        tau_z
    1     1.000000     0.000001     1.000000     0.000000     0.000000     0.000000     0.000000     0.000000
    2    -1.000000     0.000001     1.000000     0.000000     0.000000     0.000000     0.000000     0.000000
    3     1.000000   180.000000     1.000000     0.000000     0.000000     0.000000     0.000000     0.000000
    4    -1.000000   180.000000     1.000000     0.000000     0.000000     0.000000     0.000000     0.000000
    5     1.000000   180.000000     0.000000     0.000000     1.000000     0.000000     0.000000    -0.500000
    6    -1.000000   180.000000     0.000000     0.000000     1.000000     0.000000     0.000000    -0.500000
    7     1.000000   180.000000     0.000000     1.000000     0.000000     0.000000     0.000000    -0.500000
    8    -1.000000   180.000000     0.000000     1.000000     0.000000     0.000000     0.000000    -0.500000
 
 Subroutine IBZKPT returns following result:
 ===========================================
 
 Found    208 irreducible k-points:
 
 Following reciprocal coordinates:
            Coordinates               Weight
  0.062500  0.062500  0.062500     64.000000
  0.125000 -0.062500  0.062500     32.000000
  0.187500  0.062500  0.062500     64.000000
  0.250000 -0.187500  0.062500     64.000000
  0.062500 -0.250000  0.062500     64.000000
  0.312500  0.062500  0.062500     64.000000
  0.375000 -0.312500  0.062500     64.000000
  0.062500 -0.375000  0.062500     64.000000
  0.437500  0.062500  0.062500     64.000000
  0.500000 -0.437500  0.062500     64.000000
  0.062500  0.500000  0.062500     64.000000
 -0.437500  0.062500  0.062500     64.000000
 -0.375000  0.437500  0.062500     64.000000
  0.062500  0.375000  0.062500     64.000000
 -0.312500  0.062500  0.062500     64.000000
 -0.250000  0.312500  0.062500     64.000000
  0.062500  0.250000  0.062500     64.000000
 -0.187500  0.062500  0.062500     64.000000
 -0.125000  0.187500  0.062500     64.000000
  0.062500  0.125000  0.062500     64.000000
 -0.062500  0.062500  0.062500     64.000000
  0.000000  0.062500  0.062500     32.000000
  0.187500  0.187500  0.062500     64.000000
  0.375000 -0.187500  0.062500     32.000000
  0.312500  0.187500  0.062500     64.000000
  0.500000 -0.312500  0.062500     64.000000
  0.187500  0.500000  0.062500     64.000000
  0.437500  0.187500  0.062500     64.000000
 -0.375000 -0.437500  0.062500     64.000000
  0.187500  0.375000  0.062500     64.000000
 -0.437500  0.187500  0.062500     64.000000
 -0.250000  0.437500  0.062500     64.000000
  0.187500  0.250000  0.062500     64.000000
 -0.312500  0.187500  0.062500     64.000000
 -0.125000  0.312500  0.062500     64.000000
  0.187500  0.125000  0.062500     64.000000
 -0.187500  0.187500  0.062500     64.000000
  0.000000  0.187500  0.062500     32.000000
  0.312500  0.312500  0.062500     64.000000
 -0.375000 -0.312500  0.062500     32.000000
  0.437500  0.312500  0.062500     64.000000
 -0.250000 -0.437500  0.062500     64.000000
  0.312500  0.250000  0.062500     64.000000
 -0.437500  0.312500  0.062500     64.000000
 -0.125000  0.437500  0.062500     64.000000
  0.312500  0.125000  0.062500     64.000000
 -0.312500  0.312500  0.062500     64.000000
  0.000000  0.312500  0.062500     32.000000
  0.437500  0.437500  0.062500     64.000000
 -0.125000 -0.437500  0.062500     32.000000
 -0.437500  0.437500  0.062500     64.000000
  0.000000  0.437500  0.062500     32.000000
  0.062500  0.062500  0.187500     64.000000
  0.125000 -0.062500  0.187500     32.000000
  0.187500  0.062500  0.187500     64.000000
  0.250000 -0.187500  0.187500     64.000000
  0.062500 -0.250000  0.187500     64.000000
  0.312500  0.062500  0.187500     64.000000
  0.375000 -0.312500  0.187500     64.000000
  0.062500 -0.375000  0.187500     64.000000
  0.437500  0.062500  0.187500     64.000000
  0.500000 -0.437500  0.187500     64.000000
  0.062500  0.500000  0.187500     64.000000
 -0.437500  0.062500  0.187500     64.000000
 -0.375000  0.437500  0.187500     64.000000
  0.062500  0.375000  0.187500     64.000000
 -0.312500  0.062500  0.187500     64.000000
 -0.250000  0.312500  0.187500     64.000000
  0.062500  0.250000  0.187500     64.000000
 -0.187500  0.062500  0.187500     64.000000
 -0.125000  0.187500  0.187500     64.000000
  0.062500  0.125000  0.187500     64.000000
 -0.062500  0.062500  0.187500     64.000000
  0.000000  0.062500  0.187500     32.000000
  0.187500  0.187500  0.187500     64.000000
  0.375000 -0.187500  0.187500     32.000000
  0.312500  0.187500  0.187500     64.000000
  0.500000 -0.312500  0.187500     64.000000
  0.187500  0.500000  0.187500     64.000000
  0.437500  0.187500  0.187500     64.000000
 -0.375000 -0.437500  0.187500     64.000000
  0.187500  0.375000  0.187500     64.000000
 -0.437500  0.187500  0.187500     64.000000
 -0.250000  0.437500  0.187500     64.000000
  0.187500  0.250000  0.187500     64.000000
 -0.312500  0.187500  0.187500     64.000000
 -0.125000  0.312500  0.187500     64.000000
  0.187500  0.125000  0.187500     64.000000
 -0.187500  0.187500  0.187500     64.000000
  0.000000  0.187500  0.187500     32.000000
  0.312500  0.312500  0.187500     64.000000
 -0.375000 -0.312500  0.187500     32.000000
  0.437500  0.312500  0.187500     64.000000
 -0.250000 -0.437500  0.187500     64.000000
  0.312500  0.250000  0.187500     64.000000
 -0.437500  0.312500  0.187500     64.000000
 -0.125000  0.437500  0.187500     64.000000
  0.312500  0.125000  0.187500     64.000000
 -0.312500  0.312500  0.187500     64.000000
  0.000000  0.312500  0.187500     32.000000
  0.437500  0.437500  0.187500     64.000000
 -0.125000 -0.437500  0.187500     32.000000
 -0.437500  0.437500  0.187500     64.000000
  0.000000  0.437500  0.187500     32.000000
  0.062500  0.062500  0.312500     64.000000
  0.125000 -0.062500  0.312500     32.000000
  0.187500  0.062500  0.312500     64.000000
  0.250000 -0.187500  0.312500     64.000000
  0.062500 -0.250000  0.312500     64.000000
  0.312500  0.062500  0.312500     64.000000
  0.375000 -0.312500  0.312500     64.000000
  0.062500 -0.375000  0.312500     64.000000
  0.437500  0.062500  0.312500     64.000000
  0.500000 -0.437500  0.312500     64.000000
  0.062500  0.500000  0.312500     64.000000
 -0.437500  0.062500  0.312500     64.000000
 -0.375000  0.437500  0.312500     64.000000
  0.062500  0.375000  0.312500     64.000000
 -0.312500  0.062500  0.312500     64.000000
 -0.250000  0.312500  0.312500     64.000000
  0.062500  0.250000  0.312500     64.000000
 -0.187500  0.062500  0.312500     64.000000
 -0.125000  0.187500  0.312500     64.000000
  0.062500  0.125000  0.312500     64.000000
 -0.062500  0.062500  0.312500     64.000000
  0.000000  0.062500  0.312500     32.000000
  0.187500  0.187500  0.312500     64.000000
  0.375000 -0.187500  0.312500     32.000000
  0.312500  0.187500  0.312500     64.000000
  0.500000 -0.312500  0.312500     64.000000
  0.187500  0.500000  0.312500     64.000000
  0.437500  0.187500  0.312500     64.000000
 -0.375000 -0.437500  0.312500     64.000000
  0.187500  0.375000  0.312500     64.000000
 -0.437500  0.187500  0.312500     64.000000
 -0.250000  0.437500  0.312500     64.000000
  0.187500  0.250000  0.312500     64.000000
 -0.312500  0.187500  0.312500     64.000000
 -0.125000  0.312500  0.312500     64.000000
  0.187500  0.125000  0.312500     64.000000
 -0.187500  0.187500  0.312500     64.000000
  0.000000  0.187500  0.312500     32.000000
  0.312500  0.312500  0.312500     64.000000
 -0.375000 -0.312500  0.312500     32.000000
  0.437500  0.312500  0.312500     64.000000
 -0.250000 -0.437500  0.312500     64.000000
  0.312500  0.250000  0.312500     64.000000
 -0.437500  0.312500  0.312500     64.000000
 -0.125000  0.437500  0.312500     64.000000
  0.312500  0.125000  0.312500     64.000000
 -0.312500  0.312500  0.312500     64.000000
  0.000000  0.312500  0.312500     32.000000
  0.437500  0.437500  0.312500     64.000000
 -0.125000 -0.437500  0.312500     32.000000
 -0.437500  0.437500  0.312500     64.000000
  0.000000  0.437500  0.312500     32.000000
  0.062500  0.062500  0.437500     64.000000
  0.125000 -0.062500  0.437500     32.000000
  0.187500  0.062500  0.437500     64.000000
  0.250000 -0.187500  0.437500     64.000000
  0.062500 -0.250000  0.437500     64.000000
  0.312500  0.062500  0.437500     64.000000
  0.375000 -0.312500  0.437500     64.000000
  0.062500 -0.375000  0.437500     64.000000
  0.437500  0.062500  0.437500     64.000000
  0.500000 -0.437500  0.437500     64.000000
  0.062500  0.500000  0.437500     64.000000
 -0.437500  0.062500  0.437500     64.000000
 -0.375000  0.437500  0.437500     64.000000
  0.062500  0.375000  0.437500     64.000000
 -0.312500  0.062500  0.437500     64.000000
 -0.250000  0.312500  0.437500     64.000000
  0.062500  0.250000  0.437500     64.000000
 -0.187500  0.062500  0.437500     64.000000
 -0.125000  0.187500  0.437500     64.000000
  0.062500  0.125000  0.437500     64.000000
 -0.062500  0.062500  0.437500     64.000000
  0.000000  0.062500  0.437500     32.000000
  0.187500  0.187500  0.437500     64.000000
  0.375000 -0.187500  0.437500     32.000000
  0.312500  0.187500  0.437500     64.000000
  0.500000 -0.312500  0.437500     64.000000
  0.187500  0.500000  0.437500     64.000000
  0.437500  0.187500  0.437500     64.000000
 -0.375000 -0.437500  0.437500     64.000000
  0.187500  0.375000  0.437500     64.000000
 -0.437500  0.187500  0.437500     64.000000
 -0.250000  0.437500  0.437500     64.000000
  0.187500  0.250000  0.437500     64.000000
 -0.312500  0.187500  0.437500     64.000000
 -0.125000  0.312500  0.437500     64.000000
  0.187500  0.125000  0.437500     64.000000
 -0.187500  0.187500  0.437500     64.000000
  0.000000  0.187500  0.437500     32.000000
  0.312500  0.312500  0.437500     64.000000
 -0.375000 -0.312500  0.437500     32.000000
  0.437500  0.312500  0.437500     64.000000
 -0.250000 -0.437500  0.437500     64.000000
  0.312500  0.250000  0.437500     64.000000
 -0.437500  0.312500  0.437500     64.000000
 -0.125000  0.437500  0.437500     64.000000
  0.312500  0.125000  0.437500     64.000000
 -0.312500  0.312500  0.437500     64.000000
  0.000000  0.312500  0.437500     32.000000
  0.437500  0.437500  0.437500     64.000000
 -0.125000 -0.437500  0.437500     32.000000
 -0.437500  0.437500  0.437500     64.000000
  0.000000  0.437500  0.437500     32.000000
 
 Following cartesian coordinates:
            Coordinates               Weight
  0.025097  0.043471  0.007684     64.000000
  0.050195  0.000000  0.007684     32.000000
  0.075292  0.072451  0.007684     64.000000
  0.100390 -0.028981  0.007684     64.000000
  0.025097 -0.101432  0.007684     64.000000
  0.125487  0.101432  0.007684     64.000000
  0.150584 -0.057961  0.007684     64.000000
  0.025097 -0.159393  0.007684     64.000000
  0.175682  0.130412  0.007684     64.000000
  0.200779 -0.086942  0.007684     64.000000
  0.025097  0.246334  0.007684     64.000000
 -0.175682 -0.072451  0.007684     64.000000
 -0.150584  0.115922  0.007684     64.000000
  0.025097  0.188373  0.007684     64.000000
 -0.125487 -0.043471  0.007684     64.000000
 -0.100390  0.086942  0.007684     64.000000
  0.025097  0.130412  0.007684     64.000000
 -0.075292 -0.014490  0.007684     64.000000
 -0.050195  0.057961  0.007684     64.000000
  0.025097  0.072451  0.007684     64.000000
 -0.025097  0.014490  0.007684     64.000000
  0.000000  0.028981  0.007684     32.000000
  0.075292  0.130412  0.007684     64.000000
  0.150584  0.000000  0.007684     32.000000
  0.125487  0.159393  0.007684     64.000000
  0.200779 -0.028981  0.007684     64.000000
  0.075292  0.275315  0.007684     64.000000
  0.175682  0.188373  0.007684     64.000000
 -0.150584 -0.289805  0.007684     64.000000
  0.075292  0.217354  0.007684     64.000000
 -0.175682 -0.014490  0.007684     64.000000
 -0.100390  0.144903  0.007684     64.000000
  0.075292  0.159393  0.007684     64.000000
 -0.125487  0.014490  0.007684     64.000000
 -0.050195  0.115922  0.007684     64.000000
  0.075292  0.101432  0.007684     64.000000
 -0.075292  0.043471  0.007684     64.000000
  0.000000  0.086942  0.007684     32.000000
  0.125487  0.217354  0.007684     64.000000
 -0.150584 -0.231844  0.007684     32.000000
  0.175682  0.246334  0.007684     64.000000
 -0.100390 -0.260825  0.007684     64.000000
  0.125487  0.188373  0.007684     64.000000
 -0.175682  0.043471  0.007684     64.000000
 -0.050195  0.173883  0.007684     64.000000
  0.125487  0.130412  0.007684     64.000000
 -0.125487  0.072451  0.007684     64.000000
  0.000000  0.144903  0.007684     32.000000
  0.175682  0.304295  0.007684     64.000000
 -0.050195 -0.231844  0.007684     32.000000
 -0.175682  0.101432  0.007684     64.000000
  0.000000  0.202864  0.007684     32.000000
  0.025097  0.043471  0.023053     64.000000
  0.050195  0.000000  0.023053     32.000000
  0.075292  0.072451  0.023053     64.000000
  0.100390 -0.028981  0.023053     64.000000
  0.025097 -0.101432  0.023053     64.000000
  0.125487  0.101432  0.023053     64.000000
  0.150584 -0.057961  0.023053     64.000000
  0.025097 -0.159393  0.023053     64.000000
  0.175682  0.130412  0.023053     64.000000
  0.200779 -0.086942  0.023053     64.000000
  0.025097  0.246334  0.023053     64.000000
 -0.175682 -0.072451  0.023053     64.000000
 -0.150584  0.115922  0.023053     64.000000
  0.025097  0.188373  0.023053     64.000000
 -0.125487 -0.043471  0.023053     64.000000
 -0.100390  0.086942  0.023053     64.000000
  0.025097  0.130412  0.023053     64.000000
 -0.075292 -0.014490  0.023053     64.000000
 -0.050195  0.057961  0.023053     64.000000
  0.025097  0.072451  0.023053     64.000000
 -0.025097  0.014490  0.023053     64.000000
  0.000000  0.028981  0.023053     32.000000
  0.075292  0.130412  0.023053     64.000000
  0.150584  0.000000  0.023053     32.000000
  0.125487  0.159393  0.023053     64.000000
  0.200779 -0.028981  0.023053     64.000000
  0.075292  0.275315  0.023053     64.000000
  0.175682  0.188373  0.023053     64.000000
 -0.150584 -0.289805  0.023053     64.000000
  0.075292  0.217354  0.023053     64.000000
 -0.175682 -0.014490  0.023053     64.000000
 -0.100390  0.144903  0.023053     64.000000
  0.075292  0.159393  0.023053     64.000000
 -0.125487  0.014490  0.023053     64.000000
 -0.050195  0.115922  0.023053     64.000000
  0.075292  0.101432  0.023053     64.000000
 -0.075292  0.043471  0.023053     64.000000
  0.000000  0.086942  0.023053     32.000000
  0.125487  0.217354  0.023053     64.000000
 -0.150584 -0.231844  0.023053     32.000000
  0.175682  0.246334  0.023053     64.000000
 -0.100390 -0.260825  0.023053     64.000000
  0.125487  0.188373  0.023053     64.000000
 -0.175682  0.043471  0.023053     64.000000
 -0.050195  0.173883  0.023053     64.000000
  0.125487  0.130412  0.023053     64.000000
 -0.125487  0.072451  0.023053     64.000000
  0.000000  0.144903  0.023053     32.000000
  0.175682  0.304295  0.023053     64.000000
 -0.050195 -0.231844  0.023053     32.000000
 -0.175682  0.101432  0.023053     64.000000
  0.000000  0.202864  0.023053     32.000000
  0.025097  0.043471  0.038422     64.000000
  0.050195  0.000000  0.038422     32.000000
  0.075292  0.072451  0.038422     64.000000
  0.100390 -0.028981  0.038422     64.000000
  0.025097 -0.101432  0.038422     64.000000
  0.125487  0.101432  0.038422     64.000000
  0.150584 -0.057961  0.038422     64.000000
  0.025097 -0.159393  0.038422     64.000000
  0.175682  0.130412  0.038422     64.000000
  0.200779 -0.086942  0.038422     64.000000
  0.025097  0.246334  0.038422     64.000000
 -0.175682 -0.072451  0.038422     64.000000
 -0.150584  0.115922  0.038422     64.000000
  0.025097  0.188373  0.038422     64.000000
 -0.125487 -0.043471  0.038422     64.000000
 -0.100390  0.086942  0.038422     64.000000
  0.025097  0.130412  0.038422     64.000000
 -0.075292 -0.014490  0.038422     64.000000
 -0.050195  0.057961  0.038422     64.000000
  0.025097  0.072451  0.038422     64.000000
 -0.025097  0.014490  0.038422     64.000000
  0.000000  0.028981  0.038422     32.000000
  0.075292  0.130412  0.038422     64.000000
  0.150584  0.000000  0.038422     32.000000
  0.125487  0.159393  0.038422     64.000000
  0.200779 -0.028981  0.038422     64.000000
  0.075292  0.275315  0.038422     64.000000
  0.175682  0.188373  0.038422     64.000000
 -0.150584 -0.289805  0.038422     64.000000
  0.075292  0.217354  0.038422     64.000000
 -0.175682 -0.014490  0.038422     64.000000
 -0.100390  0.144903  0.038422     64.000000
  0.075292  0.159393  0.038422     64.000000
 -0.125487  0.014490  0.038422     64.000000
 -0.050195  0.115922  0.038422     64.000000
  0.075292  0.101432  0.038422     64.000000
 -0.075292  0.043471  0.038422     64.000000
  0.000000  0.086942  0.038422     32.000000
  0.125487  0.217354  0.038422     64.000000
 -0.150584 -0.231844  0.038422     32.000000
  0.175682  0.246334  0.038422     64.000000
 -0.100390 -0.260825  0.038422     64.000000
  0.125487  0.188373  0.038422     64.000000
 -0.175682  0.043471  0.038422     64.000000
 -0.050195  0.173883  0.038422     64.000000
  0.125487  0.130412  0.038422     64.000000
 -0.125487  0.072451  0.038422     64.000000
  0.000000  0.144903  0.038422     32.000000
  0.175682  0.304295  0.038422     64.000000
 -0.050195 -0.231844  0.038422     32.000000
 -0.175682  0.101432  0.038422     64.000000
  0.000000  0.202864  0.038422     32.000000
  0.025097  0.043471  0.053791     64.000000
  0.050195  0.000000  0.053791     32.000000
  0.075292  0.072451  0.053791     64.000000
  0.100390 -0.028981  0.053791     64.000000
  0.025097 -0.101432  0.053791     64.000000
  0.125487  0.101432  0.053791     64.000000
  0.150584 -0.057961  0.053791     64.000000
  0.025097 -0.159393  0.053791     64.000000
  0.175682  0.130412  0.053791     64.000000
  0.200779 -0.086942  0.053791     64.000000
  0.025097  0.246334  0.053791     64.000000
 -0.175682 -0.072451  0.053791     64.000000
 -0.150584  0.115922  0.053791     64.000000
  0.025097  0.188373  0.053791     64.000000
 -0.125487 -0.043471  0.053791     64.000000
 -0.100390  0.086942  0.053791     64.000000
  0.025097  0.130412  0.053791     64.000000
 -0.075292 -0.014490  0.053791     64.000000
 -0.050195  0.057961  0.053791     64.000000
  0.025097  0.072451  0.053791     64.000000
 -0.025097  0.014490  0.053791     64.000000
  0.000000  0.028981  0.053791     32.000000
  0.075292  0.130412  0.053791     64.000000
  0.150584  0.000000  0.053791     32.000000
  0.125487  0.159393  0.053791     64.000000
  0.200779 -0.028981  0.053791     64.000000
  0.075292  0.275315  0.053791     64.000000
  0.175682  0.188373  0.053791     64.000000
 -0.150584 -0.289805  0.053791     64.000000
  0.075292  0.217354  0.053791     64.000000
 -0.175682 -0.014490  0.053791     64.000000
 -0.100390  0.144903  0.053791     64.000000
  0.075292  0.159393  0.053791     64.000000
 -0.125487  0.014490  0.053791     64.000000
 -0.050195  0.115922  0.053791     64.000000
  0.075292  0.101432  0.053791     64.000000
 -0.075292  0.043471  0.053791     64.000000
  0.000000  0.086942  0.053791     32.000000
  0.125487  0.217354  0.053791     64.000000
 -0.150584 -0.231844  0.053791     32.000000
  0.175682  0.246334  0.053791     64.000000
 -0.100390 -0.260825  0.053791     64.000000
  0.125487  0.188373  0.053791     64.000000
 -0.175682  0.043471  0.053791     64.000000
 -0.050195  0.173883  0.053791     64.000000
  0.125487  0.130412  0.053791     64.000000
 -0.125487  0.072451  0.053791     64.000000
  0.000000  0.144903  0.053791     32.000000
  0.175682  0.304295  0.053791     64.000000
 -0.050195 -0.231844  0.053791     32.000000
 -0.175682  0.101432  0.053791     64.000000
  0.000000  0.202864  0.053791     32.000000
 


--------------------------------------------------------------------------------------------------------




 Dimension of arrays:
   k-points           NKPTS =    208   k-points in BZ     NKDIM =    208   number of bands    NBANDS=     32
   number of dos      NEDOS =    301   number of ions     NIONS =      4
   non local maximal  LDIM  =      6   non local SUM 2l+1 LMDIM =     18
   total plane-waves  NPLWV =  12800
   max r-space proj   IRMAX =      1   max aug-charges    IRDMAX=   5400
   dimension x,y,z NGX =    16 NGY =   16 NGZ =   50
   dimension x,y,z NGXF=    24 NGYF=   24 NGZF=   80
   support grid    NGXF=    24 NGYF=   24 NGZF=   80
   ions per type =               4
   NGX,Y,Z   is equivalent  to a cutoff of  10.68, 10.68, 10.22 a.u.
   NGXF,Y,Z  is equivalent  to a cutoff of  16.02, 16.02, 16.35 a.u.

 SYSTEM =  Co                                      
 POSCAR =  Co                                      

 Startparameter for this run:
   NWRITE =      2    write-flag & timer
   PREC   = high      normal or accurate (medium, high low for compatibility)
   ISTART =      0    job   : 0-new  1-cont  2-samecut
   ICHARG =      2    charge: 1-file 2-atom 10-const
   ISPIN  =      2    spin polarized calculation?
   LNONCOLLINEAR =      F non collinear calculations
   LSORBIT =      F    spin-orbit coupling
   INIWAV =      1    electr: 0-lowe 1-rand  2-diag
   LASPH  =      F    aspherical Exc in radial PAW
   METAGGA=      F    non-selfconsistent MetaGGA calc.

 Electronic Relaxation 1
   ENCUT  =  335.0 eV  24.62 Ry    4.96 a.u.   3.72  3.72 12.14*2*pi/ulx,y,z
   ENINI  =  335.0     initial cutoff
   ENAUG  =  477.8 eV  augmentation charge cutoff
   NELM   =    120;   NELMIN=  2; NELMDL=-12     # of ELM steps 
   EDIFF  = 0.1E-05   stopping-criterion for ELM
   LREAL  =      F    real-space projection
   NLSPLINE    = F    spline interpolate recip. space projectors
   LCOMPAT=      F    compatible to vasp.4.4
   GGA_COMPAT  = T    GGA compatible to vasp.4.4-vasp.4.6
   LMAXPAW     = -100 max onsite density
   LMAXMIX     =    2 max onsite mixed and CHGCAR
   VOSKOWN=      0    Vosko Wilk Nusair interpolation
   ROPT   =    0.00000
 Ionic relaxation
   EDIFFG = 0.1E-04   stopping-criterion for IOM
   NSW    =   1000    number of steps for IOM
   NBLOCK =      1;   KBLOCK =   1000    inner block; outer block 
   IBRION =      2    ionic relax: 0-MD 1-quasi-New 2-CG
   NFREE  =      1    steps in history (QN), initial steepest desc. (CG)
   ISIF   =      2    stress and relaxation
   IWAVPR =     11    prediction:  0-non 1-charg 2-wave 3-comb
   ISYM   =      2    0-nonsym 1-usesym 2-fastsym
   LCORR  =      T    Harris-Foulkes like correction to forces

   POTIM  = 0.1000    time-step for ionic-motion
   TEIN   =    0.0    initial temperature
   TEBEG  =    0.0;   TEEND  =   0.0 temperature during run
   SMASS  =  -3.00    Nose mass-parameter (am)
   estimated Nose-frequenzy (Omega)   =  0.10E-29 period in steps =****** mass=  -0.142E-27a.u.
   SCALEE = 1.0000    scale energy and forces
   NPACO  =    256;   APACO  = 16.0  distance and # of slots for P.C.
   PSTRESS=    0.0 pullay stress

  Mass of Ions in am
   POMASS =  58.93
  Ionic Valenz
   ZVAL   =   9.00
  Atomic Wigner-Seitz radii
   RWIGS  =  -1.00
  virtual crystal weights 
   VCA    =   1.00
   NELECT =      36.0000    total number of electrons
   NUPDOWN=      -1.0000    fix difference up-down

 DOS related values:
   EMIN   =  10.00;   EMAX   =-10.00  energy-range for DOS
   EFERMI =   0.00
   ISMEAR =     1;   SIGMA  =   0.20  broadening in eV -4-tet -1-fermi 0-gaus

 Electronic relaxation 2 (details)
   IALGO  =     48    algorithm
   LDIAG  =      T    sub-space diagonalisation (order eigenvalues)
   LSUBROT=      F    optimize rotation matrix (better conditioning)
   TURBO    =      0    0=normal 1=particle mesh
   IRESTART =      0    0=no restart 2=restart with 2 vectors
   NREBOOT  =      0    no. of reboots
   NMIN     =      0    reboot dimension
   EREF     =   0.00    reference energy to select bands
   IMIX   =      4    mixing-type and parameters
     AMIX     =   0.40;   BMIX     =  1.00
     AMIX_MAG =   1.60;   BMIX_MAG =  1.00
     AMIN     =   0.10
     WC   =   100.;   INIMIX=   1;  MIXPRE=   1;  MAXMIX= -45

 Intra band minimization:
   WEIMIN = 0.0010     energy-eigenvalue tresh-hold
   EBREAK =  0.78E-08  absolut break condition
   DEPER  =   0.30     relativ break condition  

   TIME   =   0.40     timestep for ELM

  volume/ion in A,a.u.               =      10.92        73.69
  Fermi-wavevector in a.u.,A,eV,Ry     =   1.534894  2.900530 32.053977  2.355901
  Thomas-Fermi vector in A             =   2.641759
 
 Write flags
   LWAVE        =      F    write WAVECAR
   LDOWNSAMPLE  =      F    k-point downsampling of WAVECAR
   LCHARG       =      T    write CHGCAR
   LVTOT        =      F    write LOCPOT, total local potential
   LVHAR        =      F    write LOCPOT, Hartree potential only
   LELF         =      F    write electronic localiz. function (ELF)
   LORBIT       =     10    0 simple, 1 ext, 2 COOP (PROOUT), +10 PAW based schemes


 Dipole corrections
   LMONO  =      F    monopole corrections only (constant potential shift)
   LDIPOL =      F    correct potential (dipole corrections)
   IDIPOL =      0    1-x, 2-y, 3-z, 4-all directions 
   EPSILON=  1.0000000 bulk dielectric constant

 Exchange correlation treatment:
   GGA     =    --    GGA type
   LEXCH   =     8    internal setting for exchange type
   VOSKOWN=      0    Vosko Wilk Nusair interpolation
   LHFCALC =     F    Hartree Fock is set to
   LHFONE  =     F    Hartree Fock one center treatment
   AEXX    =    0.0000 exact exchange contribution

 Linear response parameters
   LEPSILON=     F    determine dielectric tensor
   LRPA    =     F    only Hartree local field effects (RPA)
   LNABLA  =     F    use nabla operator in PAW spheres
   LVEL    =     F    velocity operator in full k-point grid
   LINTERFAST=   F  fast interpolation
   KINTER  =     0    interpolate to denser k-point grid
   CSHIFT  =0.1000    complex shift for real part using Kramers Kronig
   OMEGAMAX=  -1.0    maximum frequency
   DEG_THRESHOLD= 0.2000000E-02 threshold for treating states as degnerate
   RTIME   =   -0.100 relaxation time in fs
  (WPLASMAI=    0.000 imaginary part of plasma frequency in eV, 0.658/RTIME)
   DFIELD  = 0.0000000 0.0000000 0.0000000 field for delta impulse in time
 
 Orbital magnetization related:
   ORBITALMAG=     F  switch on orbital magnetization
   LCHIMAG   =     F  perturbation theory with respect to B field
   DQ        =  0.001000  dq finite difference perturbation B field
   LLRAUG    =     F  two centre corrections for induced B field



--------------------------------------------------------------------------------------------------------


 conjugate gradient relaxation of ions
 charge density and potential will be updated during run
 spin polarized calculation
 RMM-DIIS sequential band-by-band
 perform sub-space diagonalisation
    before iterative eigenvector-optimisation
 modified Broyden-mixing scheme, WC =      100.0
 initial mixing is a Kerker type mixing with AMIX =  0.4000 and BMIX =      1.0000
 Hartree-type preconditioning will be used
 using additional bands           14
 reciprocal scheme for non local part
 use partial core corrections
 calculate Harris-corrections to forces 
   (improved forces if not selfconsistent)
 use gradient corrections 
 use of overlap-Matrix (Vanderbilt PP)
 Methfessel and Paxton  Order N= 1 SIGMA  =   0.20


--------------------------------------------------------------------------------------------------------


  energy-cutoff  :      334.96
  volume of cell :       43.68
      direct lattice vectors                 reciprocal lattice vectors
     2.490299050  0.000000000  0.000000000     0.401558198  0.231844017  0.000000000
    -1.245149525  2.156622400  0.000000000     0.000000000  0.463688034  0.000000000
     0.000000000  0.000000000  8.133282638     0.000000000  0.000000000  0.122951586

  length of vectors
     2.490299050  2.490264547  8.133282638     0.463681609  0.463688034  0.122951586


 
 k-points in units of 2pi/SCALE and weight: Automatic mesh                          
   0.02509739  0.04347075  0.00768447       0.005
   0.05019477  0.00000000  0.00768447       0.003
   0.07529216  0.07245126  0.00768447       0.005
   0.10038955 -0.02898050  0.00768447       0.005
   0.02509739 -0.10143176  0.00768447       0.005
   0.12548694  0.10143176  0.00768447       0.005
   0.15058432 -0.05796100  0.00768447       0.005
   0.02509739 -0.15939276  0.00768447       0.005
   0.17568171  0.13041226  0.00768447       0.005
   0.20077910 -0.08694151  0.00768447       0.005
   0.02509739  0.24633427  0.00768447       0.005
  -0.17568171 -0.07245126  0.00768447       0.005
  -0.15058432  0.11592201  0.00768447       0.005
   0.02509739  0.18837326  0.00768447       0.005
  -0.12548694 -0.04347075  0.00768447       0.005
  -0.10038955  0.08694151  0.00768447       0.005
   0.02509739  0.13041226  0.00768447       0.005
  -0.07529216 -0.01449025  0.00768447       0.005
  -0.05019477  0.05796100  0.00768447       0.005
   0.02509739  0.07245126  0.00768447       0.005
  -0.02509739  0.01449025  0.00768447       0.005
   0.00000000  0.02898050  0.00768447       0.003
   0.07529216  0.13041226  0.00768447       0.005
   0.15058432  0.00000000  0.00768447       0.003
   0.12548694  0.15939276  0.00768447       0.005
   0.20077910 -0.02898050  0.00768447       0.005
   0.07529216  0.27531477  0.00768447       0.005
   0.17568171  0.18837326  0.00768447       0.005
  -0.15058432 -0.28980502  0.00768447       0.005
   0.07529216  0.21735377  0.00768447       0.005
  -0.17568171 -0.01449025  0.00768447       0.005
  -0.10038955  0.14490251  0.00768447       0.005
   0.07529216  0.15939276  0.00768447       0.005
  -0.12548694  0.01449025  0.00768447       0.005
  -0.05019477  0.11592201  0.00768447       0.005
   0.07529216  0.10143176  0.00768447       0.005
  -0.07529216  0.04347075  0.00768447       0.005
   0.00000000  0.08694151  0.00768447       0.003
   0.12548694  0.21735377  0.00768447       0.005
  -0.15058432 -0.23184402  0.00768447       0.003
   0.17568171  0.24633427  0.00768447       0.005
  -0.10038955 -0.26082452  0.00768447       0.005
   0.12548694  0.18837326  0.00768447       0.005
  -0.17568171  0.04347075  0.00768447       0.005
  -0.05019477  0.17388301  0.00768447       0.005
   0.12548694  0.13041226  0.00768447       0.005
  -0.12548694  0.07245126  0.00768447       0.005
   0.00000000  0.14490251  0.00768447       0.003
   0.17568171  0.30429527  0.00768447       0.005
  -0.05019477 -0.23184402  0.00768447       0.003
  -0.17568171  0.10143176  0.00768447       0.005
   0.00000000  0.20286351  0.00768447       0.003
   0.02509739  0.04347075  0.02305342       0.005
   0.05019477  0.00000000  0.02305342       0.003
   0.07529216  0.07245126  0.02305342       0.005
   0.10038955 -0.02898050  0.02305342       0.005
   0.02509739 -0.10143176  0.02305342       0.005
   0.12548694  0.10143176  0.02305342       0.005
   0.15058432 -0.05796100  0.02305342       0.005
   0.02509739 -0.15939276  0.02305342       0.005
   0.17568171  0.13041226  0.02305342       0.005
   0.20077910 -0.08694151  0.02305342       0.005
   0.02509739  0.24633427  0.02305342       0.005
  -0.17568171 -0.07245126  0.02305342       0.005
  -0.15058432  0.11592201  0.02305342       0.005
   0.02509739  0.18837326  0.02305342       0.005
  -0.12548694 -0.04347075  0.02305342       0.005
  -0.10038955  0.08694151  0.02305342       0.005
   0.02509739  0.13041226  0.02305342       0.005
  -0.07529216 -0.01449025  0.02305342       0.005
  -0.05019477  0.05796100  0.02305342       0.005
   0.02509739  0.07245126  0.02305342       0.005
  -0.02509739  0.01449025  0.02305342       0.005
   0.00000000  0.02898050  0.02305342       0.003
   0.07529216  0.13041226  0.02305342       0.005
   0.15058432  0.00000000  0.02305342       0.003
   0.12548694  0.15939276  0.02305342       0.005
   0.20077910 -0.02898050  0.02305342       0.005
   0.07529216  0.27531477  0.02305342       0.005
   0.17568171  0.18837326  0.02305342       0.005
  -0.15058432 -0.28980502  0.02305342       0.005
   0.07529216  0.21735377  0.02305342       0.005
  -0.17568171 -0.01449025  0.02305342       0.005
  -0.10038955  0.14490251  0.02305342       0.005
   0.07529216  0.15939276  0.02305342       0.005
  -0.12548694  0.01449025  0.02305342       0.005
  -0.05019477  0.11592201  0.02305342       0.005
   0.07529216  0.10143176  0.02305342       0.005
  -0.07529216  0.04347075  0.02305342       0.005
   0.00000000  0.08694151  0.02305342       0.003
   0.12548694  0.21735377  0.02305342       0.005
  -0.15058432 -0.23184402  0.02305342       0.003
   0.17568171  0.24633427  0.02305342       0.005
  -0.10038955 -0.26082452  0.02305342       0.005
   0.12548694  0.18837326  0.02305342       0.005
  -0.17568171  0.04347075  0.02305342       0.005
  -0.05019477  0.17388301  0.02305342       0.005
   0.12548694  0.13041226  0.02305342       0.005
  -0.12548694  0.07245126  0.02305342       0.005
   0.00000000  0.14490251  0.02305342       0.003
   0.17568171  0.30429527  0.02305342       0.005
  -0.05019477 -0.23184402  0.02305342       0.003
  -0.17568171  0.10143176  0.02305342       0.005
   0.00000000  0.20286351  0.02305342       0.003
   0.02509739  0.04347075  0.03842237       0.005
   0.05019477  0.00000000  0.03842237       0.003
   0.07529216  0.07245126  0.03842237       0.005
   0.10038955 -0.02898050  0.03842237       0.005
   0.02509739 -0.10143176  0.03842237       0.005
   0.12548694  0.10143176  0.03842237       0.005
   0.15058432 -0.05796100  0.03842237       0.005
   0.02509739 -0.15939276  0.03842237       0.005
   0.17568171  0.13041226  0.03842237       0.005
   0.20077910 -0.08694151  0.03842237       0.005
   0.02509739  0.24633427  0.03842237       0.005
  -0.17568171 -0.07245126  0.03842237       0.005
  -0.15058432  0.11592201  0.03842237       0.005
   0.02509739  0.18837326  0.03842237       0.005
  -0.12548694 -0.04347075  0.03842237       0.005
  -0.10038955  0.08694151  0.03842237       0.005
   0.02509739  0.13041226  0.03842237       0.005
  -0.07529216 -0.01449025  0.03842237       0.005
  -0.05019477  0.05796100  0.03842237       0.005
   0.02509739  0.07245126  0.03842237       0.005
  -0.02509739  0.01449025  0.03842237       0.005
   0.00000000  0.02898050  0.03842237       0.003
   0.07529216  0.13041226  0.03842237       0.005
   0.15058432  0.00000000  0.03842237       0.003
   0.12548694  0.15939276  0.03842237       0.005
   0.20077910 -0.02898050  0.03842237       0.005
   0.07529216  0.27531477  0.03842237       0.005
   0.17568171  0.18837326  0.03842237       0.005
  -0.15058432 -0.28980502  0.03842237       0.005
   0.07529216  0.21735377  0.03842237       0.005
  -0.17568171 -0.01449025  0.03842237       0.005
  -0.10038955  0.14490251  0.03842237       0.005
   0.07529216  0.15939276  0.03842237       0.005
  -0.12548694  0.01449025  0.03842237       0.005
  -0.05019477  0.11592201  0.03842237       0.005
   0.07529216  0.10143176  0.03842237       0.005
  -0.07529216  0.04347075  0.03842237       0.005
   0.00000000  0.08694151  0.03842237       0.003
   0.12548694  0.21735377  0.03842237       0.005
  -0.15058432 -0.23184402  0.03842237       0.003
   0.17568171  0.24633427  0.03842237       0.005
  -0.10038955 -0.26082452  0.03842237       0.005
   0.12548694  0.18837326  0.03842237       0.005
  -0.17568171  0.04347075  0.03842237       0.005
  -0.05019477  0.17388301  0.03842237       0.005
   0.12548694  0.13041226  0.03842237       0.005
  -0.12548694  0.07245126  0.03842237       0.005
   0.00000000  0.14490251  0.03842237       0.003
   0.17568171  0.30429527  0.03842237       0.005
  -0.05019477 -0.23184402  0.03842237       0.003
  -0.17568171  0.10143176  0.03842237       0.005
   0.00000000  0.20286351  0.03842237       0.003
   0.02509739  0.04347075  0.05379132       0.005
   0.05019477  0.00000000  0.05379132       0.003
   0.07529216  0.07245126  0.05379132       0.005
   0.10038955 -0.02898050  0.05379132       0.005
   0.02509739 -0.10143176  0.05379132       0.005
   0.12548694  0.10143176  0.05379132       0.005
   0.15058432 -0.05796100  0.05379132       0.005
   0.02509739 -0.15939276  0.05379132       0.005
   0.17568171  0.13041226  0.05379132       0.005
   0.20077910 -0.08694151  0.05379132       0.005
   0.02509739  0.24633427  0.05379132       0.005
  -0.17568171 -0.07245126  0.05379132       0.005
  -0.15058432  0.11592201  0.05379132       0.005
   0.02509739  0.18837326  0.05379132       0.005
  -0.12548694 -0.04347075  0.05379132       0.005
  -0.10038955  0.08694151  0.05379132       0.005
   0.02509739  0.13041226  0.05379132       0.005
  -0.07529216 -0.01449025  0.05379132       0.005
  -0.05019477  0.05796100  0.05379132       0.005
   0.02509739  0.07245126  0.05379132       0.005
  -0.02509739  0.01449025  0.05379132       0.005
   0.00000000  0.02898050  0.05379132       0.003
   0.07529216  0.13041226  0.05379132       0.005
   0.15058432  0.00000000  0.05379132       0.003
   0.12548694  0.15939276  0.05379132       0.005
   0.20077910 -0.02898050  0.05379132       0.005
   0.07529216  0.27531477  0.05379132       0.005
   0.17568171  0.18837326  0.05379132       0.005
  -0.15058432 -0.28980502  0.05379132       0.005
   0.07529216  0.21735377  0.05379132       0.005
  -0.17568171 -0.01449025  0.05379132       0.005
  -0.10038955  0.14490251  0.05379132       0.005
   0.07529216  0.15939276  0.05379132       0.005
  -0.12548694  0.01449025  0.05379132       0.005
  -0.05019477  0.11592201  0.05379132       0.005
   0.07529216  0.10143176  0.05379132       0.005
  -0.07529216  0.04347075  0.05379132       0.005
   0.00000000  0.08694151  0.05379132       0.003
   0.12548694  0.21735377  0.05379132       0.005
  -0.15058432 -0.23184402  0.05379132       0.003
   0.17568171  0.24633427  0.05379132       0.005
  -0.10038955 -0.26082452  0.05379132       0.005
   0.12548694  0.18837326  0.05379132       0.005
  -0.17568171  0.04347075  0.05379132       0.005
  -0.05019477  0.17388301  0.05379132       0.005
   0.12548694  0.13041226  0.05379132       0.005
  -0.12548694  0.07245126  0.05379132       0.005
   0.00000000  0.14490251  0.05379132       0.003
   0.17568171  0.30429527  0.05379132       0.005
  -0.05019477 -0.23184402  0.05379132       0.003
  -0.17568171  0.10143176  0.05379132       0.005
   0.00000000  0.20286351  0.05379132       0.003
 
 k-points in reciprocal lattice and weights: Automatic mesh                          
   0.06250000  0.06250000  0.06250000       0.005
   0.12500000 -0.06250000  0.06250000       0.003
   0.18750000  0.06250000  0.06250000       0.005
   0.25000000 -0.18750000  0.06250000       0.005
   0.06250000 -0.25000000  0.06250000       0.005
   0.31250000  0.06250000  0.06250000       0.005
   0.37500000 -0.31250000  0.06250000       0.005
   0.06250000 -0.37500000  0.06250000       0.005
   0.43750000  0.06250000  0.06250000       0.005
   0.50000000 -0.43750000  0.06250000       0.005
   0.06250000  0.50000000  0.06250000       0.005
  -0.43750000  0.06250000  0.06250000       0.005
  -0.37500000  0.43750000  0.06250000       0.005
   0.06250000  0.37500000  0.06250000       0.005
  -0.31250000  0.06250000  0.06250000       0.005
  -0.25000000  0.31250000  0.06250000       0.005
   0.06250000  0.25000000  0.06250000       0.005
  -0.18750000  0.06250000  0.06250000       0.005
  -0.12500000  0.18750000  0.06250000       0.005
   0.06250000  0.12500000  0.06250000       0.005
  -0.06250000  0.06250000  0.06250000       0.005
   0.00000000  0.06250000  0.06250000       0.003
   0.18750000  0.18750000  0.06250000       0.005
   0.37500000 -0.18750000  0.06250000       0.003
   0.31250000  0.18750000  0.06250000       0.005
   0.50000000 -0.31250000  0.06250000       0.005
   0.18750000  0.50000000  0.06250000       0.005
   0.43750000  0.18750000  0.06250000       0.005
  -0.37500000 -0.43750000  0.06250000       0.005
   0.18750000  0.37500000  0.06250000       0.005
  -0.43750000  0.18750000  0.06250000       0.005
  -0.25000000  0.43750000  0.06250000       0.005
   0.18750000  0.25000000  0.06250000       0.005
  -0.31250000  0.18750000  0.06250000       0.005
  -0.12500000  0.31250000  0.06250000       0.005
   0.18750000  0.12500000  0.06250000       0.005
  -0.18750000  0.18750000  0.06250000       0.005
   0.00000000  0.18750000  0.06250000       0.003
   0.31250000  0.31250000  0.06250000       0.005
  -0.37500000 -0.31250000  0.06250000       0.003
   0.43750000  0.31250000  0.06250000       0.005
  -0.25000000 -0.43750000  0.06250000       0.005
   0.31250000  0.25000000  0.06250000       0.005
  -0.43750000  0.31250000  0.06250000       0.005
  -0.12500000  0.43750000  0.06250000       0.005
   0.31250000  0.12500000  0.06250000       0.005
  -0.31250000  0.31250000  0.06250000       0.005
   0.00000000  0.31250000  0.06250000       0.003
   0.43750000  0.43750000  0.06250000       0.005
  -0.12500000 -0.43750000  0.06250000       0.003
  -0.43750000  0.43750000  0.06250000       0.005
   0.00000000  0.43750000  0.06250000       0.003
   0.06250000  0.06250000  0.18750000       0.005
   0.12500000 -0.06250000  0.18750000       0.003
   0.18750000  0.06250000  0.18750000       0.005
   0.25000000 -0.18750000  0.18750000       0.005
   0.06250000 -0.25000000  0.18750000       0.005
   0.31250000  0.06250000  0.18750000       0.005
   0.37500000 -0.31250000  0.18750000       0.005
   0.06250000 -0.37500000  0.18750000       0.005
   0.43750000  0.06250000  0.18750000       0.005
   0.50000000 -0.43750000  0.18750000       0.005
   0.06250000  0.50000000  0.18750000       0.005
  -0.43750000  0.06250000  0.18750000       0.005
  -0.37500000  0.43750000  0.18750000       0.005
   0.06250000  0.37500000  0.18750000       0.005
  -0.31250000  0.06250000  0.18750000       0.005
  -0.25000000  0.31250000  0.18750000       0.005
   0.06250000  0.25000000  0.18750000       0.005
  -0.18750000  0.06250000  0.18750000       0.005
  -0.12500000  0.18750000  0.18750000       0.005
   0.06250000  0.12500000  0.18750000       0.005
  -0.06250000  0.06250000  0.18750000       0.005
   0.00000000  0.06250000  0.18750000       0.003
   0.18750000  0.18750000  0.18750000       0.005
   0.37500000 -0.18750000  0.18750000       0.003
   0.31250000  0.18750000  0.18750000       0.005
   0.50000000 -0.31250000  0.18750000       0.005
   0.18750000  0.50000000  0.18750000       0.005
   0.43750000  0.18750000  0.18750000       0.005
  -0.37500000 -0.43750000  0.18750000       0.005
   0.18750000  0.37500000  0.18750000       0.005
  -0.43750000  0.18750000  0.18750000       0.005
  -0.25000000  0.43750000  0.18750000       0.005
   0.18750000  0.25000000  0.18750000       0.005
  -0.31250000  0.18750000  0.18750000       0.005
  -0.12500000  0.31250000  0.18750000       0.005
   0.18750000  0.12500000  0.18750000       0.005
  -0.18750000  0.18750000  0.18750000       0.005
   0.00000000  0.18750000  0.18750000       0.003
   0.31250000  0.31250000  0.18750000       0.005
  -0.37500000 -0.31250000  0.18750000       0.003
   0.43750000  0.31250000  0.18750000       0.005
  -0.25000000 -0.43750000  0.18750000       0.005
   0.31250000  0.25000000  0.18750000       0.005
  -0.43750000  0.31250000  0.18750000       0.005
  -0.12500000  0.43750000  0.18750000       0.005
   0.31250000  0.12500000  0.18750000       0.005
  -0.31250000  0.31250000  0.18750000       0.005
   0.00000000  0.31250000  0.18750000       0.003
   0.43750000  0.43750000  0.18750000       0.005
  -0.12500000 -0.43750000  0.18750000       0.003
  -0.43750000  0.43750000  0.18750000       0.005
   0.00000000  0.43750000  0.18750000       0.003
   0.06250000  0.06250000  0.31250000       0.005
   0.12500000 -0.06250000  0.31250000       0.003
   0.18750000  0.06250000  0.31250000       0.005
   0.25000000 -0.18750000  0.31250000       0.005
   0.06250000 -0.25000000  0.31250000       0.005
   0.31250000  0.06250000  0.31250000       0.005
   0.37500000 -0.31250000  0.31250000       0.005
   0.06250000 -0.37500000  0.31250000       0.005
   0.43750000  0.06250000  0.31250000       0.005
   0.50000000 -0.43750000  0.31250000       0.005
   0.06250000  0.50000000  0.31250000       0.005
  -0.43750000  0.06250000  0.31250000       0.005
  -0.37500000  0.43750000  0.31250000       0.005
   0.06250000  0.37500000  0.31250000       0.005
  -0.31250000  0.06250000  0.31250000       0.005
  -0.25000000  0.31250000  0.31250000       0.005
   0.06250000  0.25000000  0.31250000       0.005
  -0.18750000  0.06250000  0.31250000       0.005
  -0.12500000  0.18750000  0.31250000       0.005
   0.06250000  0.12500000  0.31250000       0.005
  -0.06250000  0.06250000  0.31250000       0.005
   0.00000000  0.06250000  0.31250000       0.003
   0.18750000  0.18750000  0.31250000       0.005
   0.37500000 -0.18750000  0.31250000       0.003
   0.31250000  0.18750000  0.31250000       0.005
   0.50000000 -0.31250000  0.31250000       0.005
   0.18750000  0.50000000  0.31250000       0.005
   0.43750000  0.18750000  0.31250000       0.005
  -0.37500000 -0.43750000  0.31250000       0.005
   0.18750000  0.37500000  0.31250000       0.005
  -0.43750000  0.18750000  0.31250000       0.005
  -0.25000000  0.43750000  0.31250000       0.005
   0.18750000  0.25000000  0.31250000       0.005
  -0.31250000  0.18750000  0.31250000       0.005
  -0.12500000  0.31250000  0.31250000       0.005
   0.18750000  0.12500000  0.31250000       0.005
  -0.18750000  0.18750000  0.31250000       0.005
   0.00000000  0.18750000  0.31250000       0.003
   0.31250000  0.31250000  0.31250000       0.005
  -0.37500000 -0.31250000  0.31250000       0.003
   0.43750000  0.31250000  0.31250000       0.005
  -0.25000000 -0.43750000  0.31250000       0.005
   0.31250000  0.25000000  0.31250000       0.005
  -0.43750000  0.31250000  0.31250000       0.005
  -0.12500000  0.43750000  0.31250000       0.005
   0.31250000  0.12500000  0.31250000       0.005
  -0.31250000  0.31250000  0.31250000       0.005
   0.00000000  0.31250000  0.31250000       0.003
   0.43750000  0.43750000  0.31250000       0.005
  -0.12500000 -0.43750000  0.31250000       0.003
  -0.43750000  0.43750000  0.31250000       0.005
   0.00000000  0.43750000  0.31250000       0.003
   0.06250000  0.06250000  0.43750000       0.005
   0.12500000 -0.06250000  0.43750000       0.003
   0.18750000  0.06250000  0.43750000       0.005
   0.25000000 -0.18750000  0.43750000       0.005
   0.06250000 -0.25000000  0.43750000       0.005
   0.31250000  0.06250000  0.43750000       0.005
   0.37500000 -0.31250000  0.43750000       0.005
   0.06250000 -0.37500000  0.43750000       0.005
   0.43750000  0.06250000  0.43750000       0.005
   0.50000000 -0.43750000  0.43750000       0.005
   0.06250000  0.50000000  0.43750000       0.005
  -0.43750000  0.06250000  0.43750000       0.005
  -0.37500000  0.43750000  0.43750000       0.005
   0.06250000  0.37500000  0.43750000       0.005
  -0.31250000  0.06250000  0.43750000       0.005
  -0.25000000  0.31250000  0.43750000       0.005
   0.06250000  0.25000000  0.43750000       0.005
  -0.18750000  0.06250000  0.43750000       0.005
  -0.12500000  0.18750000  0.43750000       0.005
   0.06250000  0.12500000  0.43750000       0.005
  -0.06250000  0.06250000  0.43750000       0.005
   0.00000000  0.06250000  0.43750000       0.003
   0.18750000  0.18750000  0.43750000       0.005
   0.37500000 -0.18750000  0.43750000       0.003
   0.31250000  0.18750000  0.43750000       0.005
   0.50000000 -0.31250000  0.43750000       0.005
   0.18750000  0.50000000  0.43750000       0.005
   0.43750000  0.18750000  0.43750000       0.005
  -0.37500000 -0.43750000  0.43750000       0.005
   0.18750000  0.37500000  0.43750000       0.005
  -0.43750000  0.18750000  0.43750000       0.005
  -0.25000000  0.43750000  0.43750000       0.005
   0.18750000  0.25000000  0.43750000       0.005
  -0.31250000  0.18750000  0.43750000       0.005
  -0.12500000  0.31250000  0.43750000       0.005
   0.18750000  0.12500000  0.43750000       0.005
  -0.18750000  0.18750000  0.43750000       0.005
   0.00000000  0.18750000  0.43750000       0.003
   0.31250000  0.31250000  0.43750000       0.005
  -0.37500000 -0.31250000  0.43750000       0.003
   0.43750000  0.31250000  0.43750000       0.005
  -0.25000000 -0.43750000  0.43750000       0.005
   0.31250000  0.25000000  0.43750000       0.005
  -0.43750000  0.31250000  0.43750000       0.005
  -0.12500000  0.43750000  0.43750000       0.005
   0.31250000  0.12500000  0.43750000       0.005
  -0.31250000  0.31250000  0.43750000       0.005
   0.00000000  0.31250000  0.43750000       0.003
   0.43750000  0.43750000  0.43750000       0.005
  -0.12500000 -0.43750000  0.43750000       0.003
  -0.43750000  0.43750000  0.43750000       0.005
   0.00000000  0.43750000  0.43750000       0.003
 
 position of ions in fractional coordinates (direct lattice) 
   0.00000000  0.00000000  0.00000000
   0.00000000  0.00000000  0.50000000
   0.66666667  0.33333333  0.25000000
   0.33333333  0.66666667  0.75000000
 
 position of ions in cartesian coordinates  (Angst):
   0.00000000  0.00000000  0.00000000
   0.00000000  0.00000000  4.06664132
   1.24514952  0.71887413  2.03332066
   0.00000000  1.43774827  6.09996198
 


--------------------------------------------------------------------------------------------------------


 k-point  1 :   0.0625 0.0625 0.0625  plane waves:     624
 k-point  2 :   0.1250-0.0625 0.0625  plane waves:     624
 k-point  3 :   0.1875 0.0625 0.0625  plane waves:     604
 k-point  4 :   0.2500-0.1875 0.0625  plane waves:     604
 k-point  5 :   0.0625-0.2500 0.0625  plane waves:     604
 k-point  6 :   0.3125 0.0625 0.0625  plane waves:     602
 k-point  7 :   0.3750-0.3125 0.0625  plane waves:     602
 k-point  8 :   0.0625-0.3750 0.0625  plane waves:     602
 k-point  9 :   0.4375 0.0625 0.0625  plane waves:     608
 k-point 10 :   0.5000-0.4375 0.0625  plane waves:     608
 k-point 11 :   0.0625 0.5000 0.0625  plane waves:     608
 k-point 12 :  -0.4375 0.0625 0.0625  plane waves:     606
 k-point 13 :  -0.3750 0.4375 0.0625  plane waves:     606
 k-point 14 :   0.0625 0.3750 0.0625  plane waves:     606
 k-point 15 :  -0.3125 0.0625 0.0625  plane waves:     608
 k-point 16 :  -0.2500 0.3125 0.0625  plane waves:     608
 k-point 17 :   0.0625 0.2500 0.0625  plane waves:     608
 k-point 18 :  -0.1875 0.0625 0.0625  plane waves:     613
 k-point 19 :  -0.1250 0.1875 0.0625  plane waves:     613
 k-point 20 :   0.0625 0.1250 0.0625  plane waves:     613
 k-point 21 :  -0.0625 0.0625 0.0625  plane waves:     622
 k-point 22 :   0.0000 0.0625 0.0625  plane waves:     622
 k-point 23 :   0.1875 0.1875 0.0625  plane waves:     606
 k-point 24 :   0.3750-0.1875 0.0625  plane waves:     606
 k-point 25 :   0.3125 0.1875 0.0625  plane waves:     606
 k-point 26 :   0.5000-0.3125 0.0625  plane waves:     606
 k-point 27 :   0.1875 0.5000 0.0625  plane waves:     606
 k-point 28 :   0.4375 0.1875 0.0625  plane waves:     609
 k-point 29 :  -0.3750-0.4375 0.0625  plane waves:     608
 k-point 30 :   0.1875 0.3750 0.0625  plane waves:     609
 k-point 31 :  -0.4375 0.1875 0.0625  plane waves:     603
 k-point 32 :  -0.2500 0.4375 0.0625  plane waves:     603
 k-point 33 :   0.1875 0.2500 0.0625  plane waves:     603
 k-point 34 :  -0.3125 0.1875 0.0625  plane waves:     607
 k-point 35 :  -0.1250 0.3125 0.0625  plane waves:     607
 k-point 36 :   0.1875 0.1250 0.0625  plane waves:     607
 k-point 37 :  -0.1875 0.1875 0.0625  plane waves:     610
 k-point 38 :   0.0000 0.1875 0.0625  plane waves:     610
 k-point 39 :   0.3125 0.3125 0.0625  plane waves:     605
 k-point 40 :  -0.3750-0.3125 0.0625  plane waves:     605
 k-point 41 :   0.4375 0.3125 0.0625  plane waves:     605
 k-point 42 :  -0.2500-0.4375 0.0625  plane waves:     605
 k-point 43 :   0.3125 0.2500 0.0625  plane waves:     605
 k-point 44 :  -0.4375 0.3125 0.0625  plane waves:     606
 k-point 45 :  -0.1250 0.4375 0.0625  plane waves:     606
 k-point 46 :   0.3125 0.1250 0.0625  plane waves:     606
 k-point 47 :  -0.3125 0.3125 0.0625  plane waves:     610
 k-point 48 :   0.0000 0.3125 0.0625  plane waves:     610
 k-point 49 :   0.4375 0.4375 0.0625  plane waves:     612
 k-point 50 :  -0.1250-0.4375 0.0625  plane waves:     612
 k-point 51 :  -0.4375 0.4375 0.0625  plane waves:     609
 k-point 52 :   0.0000 0.4375 0.0625  plane waves:     610
 k-point 53 :   0.0625 0.0625 0.1875  plane waves:     619
 k-point 54 :   0.1250-0.0625 0.1875  plane waves:     619
 k-point 55 :   0.1875 0.0625 0.1875  plane waves:     604
 k-point 56 :   0.2500-0.1875 0.1875  plane waves:     604
 k-point 57 :   0.0625-0.2500 0.1875  plane waves:     604
 k-point 58 :   0.3125 0.0625 0.1875  plane waves:     605
 k-point 59 :   0.3750-0.3125 0.1875  plane waves:     605
 k-point 60 :   0.0625-0.3750 0.1875  plane waves:     605
 k-point 61 :   0.4375 0.0625 0.1875  plane waves:     607
 k-point 62 :   0.5000-0.4375 0.1875  plane waves:     607
 k-point 63 :   0.0625 0.5000 0.1875  plane waves:     607
 k-point 64 :  -0.4375 0.0625 0.1875  plane waves:     608
 k-point 65 :  -0.3750 0.4375 0.1875  plane waves:     608
 k-point 66 :   0.0625 0.3750 0.1875  plane waves:     608
 k-point 67 :  -0.3125 0.0625 0.1875  plane waves:     606
 k-point 68 :  -0.2500 0.3125 0.1875  plane waves:     606
 k-point 69 :   0.0625 0.2500 0.1875  plane waves:     606
 k-point 70 :  -0.1875 0.0625 0.1875  plane waves:     612
 k-point 71 :  -0.1250 0.1875 0.1875  plane waves:     612
 k-point 72 :   0.0625 0.1250 0.1875  plane waves:     612
 k-point 73 :  -0.0625 0.0625 0.1875  plane waves:     617
 k-point 74 :   0.0000 0.0625 0.1875  plane waves:     617
 k-point 75 :   0.1875 0.1875 0.1875  plane waves:     606
 k-point 76 :   0.3750-0.1875 0.1875  plane waves:     606
 k-point 77 :   0.3125 0.1875 0.1875  plane waves:     606
 k-point 78 :   0.5000-0.3125 0.1875  plane waves:     606
 k-point 79 :   0.1875 0.5000 0.1875  plane waves:     606
 k-point 80 :   0.4375 0.1875 0.1875  plane waves:     613
 k-point 81 :  -0.3750-0.4375 0.1875  plane waves:     613
 k-point 82 :   0.1875 0.3750 0.1875  plane waves:     613
 k-point 83 :  -0.4375 0.1875 0.1875  plane waves:     606
 k-point 84 :  -0.2500 0.4375 0.1875  plane waves:     606
 k-point 85 :   0.1875 0.2500 0.1875  plane waves:     606
 k-point 86 :  -0.3125 0.1875 0.1875  plane waves:     602
 k-point 87 :  -0.1250 0.3125 0.1875  plane waves:     602
 k-point 88 :   0.1875 0.1250 0.1875  plane waves:     602
 k-point 89 :  -0.1875 0.1875 0.1875  plane waves:     609
 k-point 90 :   0.0000 0.1875 0.1875  plane waves:     609
 k-point 91 :   0.3125 0.3125 0.1875  plane waves:     606
 k-point 92 :  -0.3750-0.3125 0.1875  plane waves:     606
 k-point 93 :   0.4375 0.3125 0.1875  plane waves:     611
 k-point 94 :  -0.2500-0.4375 0.1875  plane waves:     611
 k-point 95 :   0.3125 0.2500 0.1875  plane waves:     611
 k-point 96 :  -0.4375 0.3125 0.1875  plane waves:     604
 k-point 97 :  -0.1250 0.4375 0.1875  plane waves:     604
 k-point 98 :   0.3125 0.1250 0.1875  plane waves:     604
 k-point 99 :  -0.3125 0.3125 0.1875  plane waves:     607
 k-point ** :   0.0000 0.3125 0.1875  plane waves:     607
 k-point ** :   0.4375 0.4375 0.1875  plane waves:     612
 k-point ** :  -0.1250-0.4375 0.1875  plane waves:     612
 k-point ** :  -0.4375 0.4375 0.1875  plane waves:     604
 k-point ** :   0.0000 0.4375 0.1875  plane waves:     604
 k-point ** :   0.0625 0.0625 0.3125  plane waves:     615
 k-point ** :   0.1250-0.0625 0.3125  plane waves:     615
 k-point ** :   0.1875 0.0625 0.3125  plane waves:     607
 k-point ** :   0.2500-0.1875 0.3125  plane waves:     607
 k-point ** :   0.0625-0.2500 0.3125  plane waves:     607
 k-point ** :   0.3125 0.0625 0.3125  plane waves:     607
 k-point ** :   0.3750-0.3125 0.3125  plane waves:     607
 k-point ** :   0.0625-0.3750 0.3125  plane waves:     607
 k-point ** :   0.4375 0.0625 0.3125  plane waves:     610
 k-point ** :   0.5000-0.4375 0.3125  plane waves:     610
 k-point ** :   0.0625 0.5000 0.3125  plane waves:     610
 k-point ** :  -0.4375 0.0625 0.3125  plane waves:     606
 k-point ** :  -0.3750 0.4375 0.3125  plane waves:     606
 k-point ** :   0.0625 0.3750 0.3125  plane waves:     606
 k-point ** :  -0.3125 0.0625 0.3125  plane waves:     604
 k-point ** :  -0.2500 0.3125 0.3125  plane waves:     604
 k-point ** :   0.0625 0.2500 0.3125  plane waves:     604
 k-point ** :  -0.1875 0.0625 0.3125  plane waves:     616
 k-point ** :  -0.1250 0.1875 0.3125  plane waves:     616
 k-point ** :   0.0625 0.1250 0.3125  plane waves:     616
 k-point ** :  -0.0625 0.0625 0.3125  plane waves:     615
 k-point ** :   0.0000 0.0625 0.3125  plane waves:     615
 k-point ** :   0.1875 0.1875 0.3125  plane waves:     606
 k-point ** :   0.3750-0.1875 0.3125  plane waves:     606
 k-point ** :   0.3125 0.1875 0.3125  plane waves:     611
 k-point ** :   0.5000-0.3125 0.3125  plane waves:     611
 k-point ** :   0.1875 0.5000 0.3125  plane waves:     611
 k-point ** :   0.4375 0.1875 0.3125  plane waves:     612
 k-point ** :  -0.3750-0.4375 0.3125  plane waves:     612
 k-point ** :   0.1875 0.3750 0.3125  plane waves:     612
 k-point ** :  -0.4375 0.1875 0.3125  plane waves:     601
 k-point ** :  -0.2500 0.4375 0.3125  plane waves:     601
 k-point ** :   0.1875 0.2500 0.3125  plane waves:     601
 k-point ** :  -0.3125 0.1875 0.3125  plane waves:     602
 k-point ** :  -0.1250 0.3125 0.3125  plane waves:     602
 k-point ** :   0.1875 0.1250 0.3125  plane waves:     602
 k-point ** :  -0.1875 0.1875 0.3125  plane waves:     609
 k-point ** :   0.0000 0.1875 0.3125  plane waves:     609
 k-point ** :   0.3125 0.3125 0.3125  plane waves:     607
 k-point ** :  -0.3750-0.3125 0.3125  plane waves:     607
 k-point ** :   0.4375 0.3125 0.3125  plane waves:     609
 k-point ** :  -0.2500-0.4375 0.3125  plane waves:     609
 k-point ** :   0.3125 0.2500 0.3125  plane waves:     609
 k-point ** :  -0.4375 0.3125 0.3125  plane waves:     605
 k-point ** :  -0.1250 0.4375 0.3125  plane waves:     605
 k-point ** :   0.3125 0.1250 0.3125  plane waves:     605
 k-point ** :  -0.3125 0.3125 0.3125  plane waves:     605
 k-point ** :   0.0000 0.3125 0.3125  plane waves:     605
 k-point ** :   0.4375 0.4375 0.3125  plane waves:     616
 k-point ** :  -0.1250-0.4375 0.3125  plane waves:     616
 k-point ** :  -0.4375 0.4375 0.3125  plane waves:     608
 k-point ** :   0.0000 0.4375 0.3125  plane waves:     608
 k-point ** :   0.0625 0.0625 0.4375  plane waves:     609
 k-point ** :   0.1250-0.0625 0.4375  plane waves:     609
 k-point ** :   0.1875 0.0625 0.4375  plane waves:     610
 k-point ** :   0.2500-0.1875 0.4375  plane waves:     610
 k-point ** :   0.0625-0.2500 0.4375  plane waves:     610
 k-point ** :   0.3125 0.0625 0.4375  plane waves:     603
 k-point ** :   0.3750-0.3125 0.4375  plane waves:     603
 k-point ** :   0.0625-0.3750 0.4375  plane waves:     603
 k-point ** :   0.4375 0.0625 0.4375  plane waves:     611
 k-point ** :   0.5000-0.4375 0.4375  plane waves:     611
 k-point ** :   0.0625 0.5000 0.4375  plane waves:     611
 k-point ** :  -0.4375 0.0625 0.4375  plane waves:     604
 k-point ** :  -0.3750 0.4375 0.4375  plane waves:     604
 k-point ** :   0.0625 0.3750 0.4375  plane waves:     604
 k-point ** :  -0.3125 0.0625 0.4375  plane waves:     605
 k-point ** :  -0.2500 0.3125 0.4375  plane waves:     605
 k-point ** :   0.0625 0.2500 0.4375  plane waves:     605
 k-point ** :  -0.1875 0.0625 0.4375  plane waves:     613
 k-point ** :  -0.1250 0.1875 0.4375  plane waves:     613
 k-point ** :   0.0625 0.1250 0.4375  plane waves:     613
 k-point ** :  -0.0625 0.0625 0.4375  plane waves:     621
 k-point ** :   0.0000 0.0625 0.4375  plane waves:     621
 k-point ** :   0.1875 0.1875 0.4375  plane waves:     600
 k-point ** :   0.3750-0.1875 0.4375  plane waves:     600
 k-point ** :   0.3125 0.1875 0.4375  plane waves:     607
 k-point ** :   0.5000-0.3125 0.4375  plane waves:     607
 k-point ** :   0.1875 0.5000 0.4375  plane waves:     607
 k-point ** :   0.4375 0.1875 0.4375  plane waves:     617
 k-point ** :  -0.3750-0.4375 0.4375  plane waves:     617
 k-point ** :   0.1875 0.3750 0.4375  plane waves:     617
 k-point ** :  -0.4375 0.1875 0.4375  plane waves:     602
 k-point ** :  -0.2500 0.4375 0.4375  plane waves:     602
 k-point ** :   0.1875 0.2500 0.4375  plane waves:     602
 k-point ** :  -0.3125 0.1875 0.4375  plane waves:     605
 k-point ** :  -0.1250 0.3125 0.4375  plane waves:     605
 k-point ** :   0.1875 0.1250 0.4375  plane waves:     605
 k-point ** :  -0.1875 0.1875 0.4375  plane waves:     616
 k-point ** :   0.0000 0.1875 0.4375  plane waves:     616
 k-point ** :   0.3125 0.3125 0.4375  plane waves:     602
 k-point ** :  -0.3750-0.3125 0.4375  plane waves:     602
 k-point ** :   0.4375 0.3125 0.4375  plane waves:     608
 k-point ** :  -0.2500-0.4375 0.4375  plane waves:     608
 k-point ** :   0.3125 0.2500 0.4375  plane waves:     608
 k-point ** :  -0.4375 0.3125 0.4375  plane waves:     604
 k-point ** :  -0.1250 0.4375 0.4375  plane waves:     604
 k-point ** :   0.3125 0.1250 0.4375  plane waves:     604
 k-point ** :  -0.3125 0.3125 0.4375  plane waves:     605
 k-point ** :   0.0000 0.3125 0.4375  plane waves:     605
 k-point ** :   0.4375 0.4375 0.4375  plane waves:     616
 k-point ** :  -0.1250-0.4375 0.4375  plane waves:     616
 k-point ** :  -0.4375 0.4375 0.4375  plane waves:     608
 k-point ** :   0.0000 0.4375 0.4375  plane waves:     608

 maximum and minimum number of plane-waves per node :       624      600

 maximum number of plane-waves:       624
 maximum index in each direction: 
   IXMAX=    4   IYMAX=    4   IZMAX=   12
   IXMIN=   -4   IYMIN=   -4   IZMIN=  -12


 serial   3D FFT for wavefunctions
 parallel 3D FFT for charge:
    minimum data exchange during FFTs selected (reduces bandwidth)


 total amount of memory used by VASP MPI-rank0    59720. kBytes
=======================================================================

   base      :      30000. kBytes
   nonl-proj :      18729. kBytes
   fftplans  :        182. kBytes
   grid      :       1314. kBytes
   one-center:        124. kBytes
   wavefun   :       9371. kBytes
 
     INWAV:  cpu time    0.0002: real time    0.0004
 Broyden mixing: mesh for mixing (old mesh)
   NGX =  7   NGY =  7   NGZ = 25
  (NGX  = 24   NGY  = 24   NGZ  = 80)
  gives a total of   1225 points

 initial charge density was supplied:
 charge density of overlapping atoms calculated
 number of electron      36.0000000 magnetization      12.0000000
 keeping initial charge density in first step


--------------------------------------------------------------------------------------------------------


 Maximum index for augmentation-charges          506 (set IRDMAX)


--------------------------------------------------------------------------------------------------------


 First call to EWALD:  gamma=   0.503
 Maximum number of real-space cells 4x 4x 1
 Maximum number of reciprocal cells 2x 2x 6

    FEWALD:  cpu time    0.0166: real time    0.0166


--------------------------------------- Iteration      1(   1)  ---------------------------------------


    POTLOK:  cpu time    0.0335: real time    0.0684
    SETDIJ:  cpu time    0.0079: real time    0.0079
    EDDIAG:  cpu time    1.6410: real time    1.6537
  RMM-DIIS:  cpu time    0.9269: real time    0.9299
    ORTHCH:  cpu time    0.1869: real time    0.1869
       DOS:  cpu time    0.0078: real time    0.0078
    --------------------------------------------
      LOOP:  cpu time    2.8040: real time    2.8547

 eigenvalue-minimisations  : 13312
 total energy-change (2. order) : 0.1531650E+03  (-0.9465270E+03)
 number of electron      36.0000000 magnetization      12.0000000
 augmentation part       36.0000000 magnetization      12.0000000

 Free energy of the ion-electron system (eV)
  ---------------------------------------------------
  alpha Z        PSCENC =       328.07335766
  Ewald energy   TEWEN  =     -3036.86137731
  -Hartree energ DENC   =      -602.90728831
  -exchange      EXHF   =         0.00000000
  -V(xc)+E(xc)   XCENC  =        70.81570727
  PAW double counting   =      2532.93623679    -2744.58596815
  entropy T*S    EENTRO =        -0.00104293
  eigenvalues    EBANDS =       351.57208033
  atomic energy  EATOM  =      3254.12333623
  Solvation  Ediel_sol  =         0.00000000
  ---------------------------------------------------
  free energy    TOTEN  =       153.16504158 eV

  energy without entropy =      153.16608450  energy(sigma->0) =      153.16538922


--------------------------------------------------------------------------------------------------------




--------------------------------------- Iteration      1(   2)  ---------------------------------------


    EDDIAG:  cpu time    1.6754: real time    1.6774
  RMM-DIIS:  cpu time    0.9706: real time    0.9706
    ORTHCH:  cpu time    0.2230: real time    0.2230
       DOS:  cpu time    0.0072: real time    0.0072
    --------------------------------------------
      LOOP:  cpu time    2.8762: real time    2.8782

 eigenvalue-minimisations  : 13312
 total energy-change (2. order) :-0.1624171E+03  (-0.1568047E+03)
 number of electron      36.0000000 magnetization      12.0000000
 augmentation part       36.0000000 magnetization      12.0000000

 Free energy of the ion-electron system (eV)
  ---------------------------------------------------
  alpha Z        PSCENC =       328.07335766
  Ewald energy   TEWEN  =     -3036.86137731
  -Hartree energ DENC   =      -602.90728831
  -exchange      EXHF   =         0.00000000
  -V(xc)+E(xc)   XCENC  =        70.81570727
  PAW double counting   =      2532.93623679    -2744.58596815
  entropy T*S    EENTRO =         0.00152788
  eigenvalues    EBANDS =       189.15243920
  atomic energy  EATOM  =      3254.12333623
  Solvation  Ediel_sol  =         0.00000000
  ---------------------------------------------------
  free energy    TOTEN  =        -9.25202875 eV

  energy without entropy =       -9.25355663  energy(sigma->0) =       -9.25253804


--------------------------------------------------------------------------------------------------------




--------------------------------------- Iteration      1(   3)  ---------------------------------------


    EDDIAG:  cpu time    1.6538: real time    1.6551
  RMM-DIIS:  cpu time    0.9172: real time    0.9180
    ORTHCH:  cpu time    0.2002: real time    0.2003
       DOS:  cpu time    0.0066: real time    0.0066
    --------------------------------------------
      LOOP:  cpu time    2.7778: real time    2.7799

 eigenvalue-minimisations  : 13312
 total energy-change (2. order) :-0.1774765E+02  (-0.1200467E+02)
 number of electron      36.0000000 magnetization      12.0000000
 augmentation part       36.0000000 magnetization      12.0000000

 Free energy of the ion-electron system (eV)
  ---------------------------------------------------
  alpha Z        PSCENC =       328.07335766
  Ewald energy   TEWEN  =     -3036.86137731
  -Hartree energ DENC   =      -602.90728831
  -exchange      EXHF   =         0.00000000
  -V(xc)+E(xc)   XCENC  =        70.81570727
  PAW double counting   =      2532.93623679    -2744.58596815
  entropy T*S    EENTRO =         0.00162866
  eigenvalues    EBANDS =       171.40468745
  atomic energy  EATOM  =      3254.12333623
  Solvation  Ediel_sol  =         0.00000000
  ---------------------------------------------------
  free energy    TOTEN  =       -26.99967972 eV

  energy without entropy =      -27.00130838  energy(sigma->0) =      -27.00022261


--------------------------------------------------------------------------------------------------------




--------------------------------------- Iteration      1(   4)  ---------------------------------------


    EDDIAG:  cpu time    1.6833: real time    1.6842
  RMM-DIIS:  cpu time    0.9083: real time    0.9103
    ORTHCH:  cpu time    0.1861: real time    0.1864
       DOS:  cpu time    0.0088: real time    0.0088
    --------------------------------------------
      LOOP:  cpu time    2.7865: real time    2.7897

 eigenvalue-minimisations  : 13312
 total energy-change (2. order) :-0.4304990E+01  (-0.1029170E+01)
 number of electron      36.0000000 magnetization      12.0000000
 augmentation part       36.0000000 magnetization      12.0000000

 Free energy of the ion-electron system (eV)
  ---------------------------------------------------
  alpha Z        PSCENC =       328.07335766
  Ewald energy   TEWEN  =     -3036.86137731
  -Hartree energ DENC   =      -602.90728831
  -exchange      EXHF   =         0.00000000
  -V(xc)+E(xc)   XCENC  =        70.81570727
  PAW double counting   =      2532.93623679    -2744.58596815
  entropy T*S    EENTRO =         0.00241265
  eigenvalues    EBANDS =       167.09891357
  atomic energy  EATOM  =      3254.12333623
  Solvation  Ediel_sol  =         0.00000000
  ---------------------------------------------------
  free energy    TOTEN  =       -31.30466961 eV

  energy without entropy =      -31.30708226  energy(sigma->0) =      -31.30547383


--------------------------------------------------------------------------------------------------------




--------------------------------------- Iteration      1(   5)  ---------------------------------------


    EDDIAG:  cpu time    1.7253: real time    1.7264
  RMM-DIIS:  cpu time    0.9868: real time    0.9870
    ORTHCH:  cpu time    0.1910: real time    0.1911
       DOS:  cpu time    0.0077: real time    0.0077
    --------------------------------------------
      LOOP:  cpu time    2.9108: real time    2.9122

 eigenvalue-minimisations  : 13312
 total energy-change (2. order) :-0.1663874E+00  (-0.1137728E+00)
 number of electron      36.0000000 magnetization      12.0000000
 augmentation part       36.0000000 magnetization      12.0000000

 Free energy of the ion-electron system (eV)
  ---------------------------------------------------
  alpha Z        PSCENC =       328.07335766
  Ewald energy   TEWEN  =     -3036.86137731
  -Hartree energ DENC   =      -602.90728831
  -exchange      EXHF   =         0.00000000
  -V(xc)+E(xc)   XCENC  =        70.81570727
  PAW double counting   =      2532.93623679    -2744.58596815
  entropy T*S    EENTRO =         0.00269517
  eigenvalues    EBANDS =       166.93224364
  atomic energy  EATOM  =      3254.12333623
[...]
      5       2.4487      1.00000
      6       2.5165      1.00000
      7       3.5428      1.00000
      8       3.7095      1.00000
      9       3.9654      1.00000
     10       4.0491      1.00000
     11       4.5043      1.00000
     12       4.6818      1.00000
     13       4.9628      1.00201
     14       5.0497      1.00972
     15       6.0746     -0.00003
     16       6.1895     -0.00000
     17       6.4545     -0.00000
     18       6.4754     -0.00000
     19       6.5403     -0.00000
     20       6.5973     -0.00000
     21       8.3346     -0.00000
     22       8.4726     -0.00000
     23       9.5674     -0.00000
     24       9.6587     -0.00000
     25      13.6138      0.00000
     26      13.6257      0.00000
     27      15.5038      0.00000
     28      15.5517      0.00000
     29      18.3628      0.00000
     30      18.7393      0.00000
     31      20.7927      0.00000
     32      21.2313      0.00000

 k-point   206 :      -0.1250   -0.4375    0.4375
  band No.  band energies     occupation 
      1       1.7136      1.00000
      2       1.7377      1.00000
      3       1.8818      1.00000
      4       1.8985      1.00000
      5       2.4487      1.00000
      6       2.5165      1.00000
      7       3.5429      1.00000
      8       3.7096      1.00000
      9       3.9655      1.00000
     10       4.0491      1.00000
     11       4.5043      1.00000
     12       4.6818      1.00000
     13       4.9629      1.00201
     14       5.0497      1.00972
     15       6.0746     -0.00003
     16       6.1895     -0.00000
     17       6.4545     -0.00000
     18       6.4754     -0.00000
     19       6.5403     -0.00000
     20       6.5973     -0.00000
     21       8.3347     -0.00000
     22       8.4727     -0.00000
     23       9.5675     -0.00000
     24       9.6589     -0.00000
     25      13.6140      0.00000
     26      13.6260      0.00000
     27      15.5040      0.00000
     28      15.5519      0.00000
     29      18.3623      0.00000
     30      18.7388      0.00000
     31      20.7414      0.00000
     32      21.0217      0.00000

 k-point   207 :      -0.4375    0.4375    0.4375
  band No.  band energies     occupation 
      1       1.2208      1.00000
      2       1.2834      1.00000
      3       1.6898      1.00000
      4       1.8200      1.00000
      5       2.3644      1.00000
      6       2.4166      1.00000
      7       3.5577      1.00000
      8       3.6949      1.00000
      9       4.4419      1.00000
     10       4.5213      1.00000
     11       4.5507      1.00000
     12       4.6850      1.00000
     13       5.0628      1.01181
     14       5.2437      1.02148
     15       6.0971     -0.00002
     16       6.2756     -0.00000
     17       6.4924     -0.00000
     18       6.5067     -0.00000
     19       6.6294     -0.00000
     20       6.6430     -0.00000
     21       6.9790     -0.00000
     22       7.1440     -0.00000
     23       9.1049     -0.00000
     24       9.6423     -0.00000
     25      13.3522      0.00000
     26      13.3874      0.00000
     27      16.0039      0.00000
     28      16.4423      0.00000
     29      19.4658      0.00000
     30      20.3040      0.00000
     31      21.5289      0.00000
     32      22.0211      0.00000

 k-point   208 :       0.0000    0.4375    0.4375
  band No.  band energies     occupation 
      1       1.2208      1.00000
      2       1.2834      1.00000
      3       1.6899      1.00000
      4       1.8200      1.00000
      5       2.3644      1.00000
      6       2.4166      1.00000
      7       3.5578      1.00000
      8       3.6949      1.00000
      9       4.4420      1.00000
     10       4.5214      1.00000
     11       4.5506      1.00000
     12       4.6849      1.00000
     13       5.0629      1.01182
     14       5.2438      1.02143
     15       6.0970     -0.00002
     16       6.2756     -0.00000
     17       6.4924     -0.00000
     18       6.5067     -0.00000
     19       6.6294     -0.00000
     20       6.6430     -0.00000
     21       6.9790     -0.00000
     22       7.1441     -0.00000
     23       9.1050     -0.00000
     24       9.6425     -0.00000
     25      13.3525      0.00000
     26      13.3877      0.00000
     27      16.0042      0.00000
     28      16.4425      0.00000
     29      19.4660      0.00000
     30      20.3076      0.00000
     31      21.7563      0.00000
     32      22.3495      0.00000


--------------------------------------------------------------------------------------------------------


 soft charge-density along one line, spin component           1
         0         1         2         3         4         5         6         7         8         9
 total charge-density along one line
 
 soft charge-density along one line, spin component           2
         0         1         2         3         4         5         6         7         8         9
 total charge-density along one line
 
 pseudopotential strength for first ion, spin component:           1
 -5.678  -0.000   0.000   0.030   0.000  -0.616   0.000  -0.000
 -0.000  -5.672  -0.000  -0.000   0.030   0.000  -0.618   0.000
  0.000  -0.000  -5.661   0.000   0.000  -0.000   0.000  -0.622
  0.030  -0.000   0.000  -5.672  -0.000  -0.011   0.000  -0.000
  0.000   0.030   0.000  -0.000  -5.678  -0.000  -0.011  -0.000
 -0.616   0.000  -0.000  -0.011  -0.000   1.222  -0.000   0.000
  0.000  -0.618   0.000   0.000  -0.011  -0.000   1.223  -0.000
 -0.000   0.000  -0.622  -0.000  -0.000   0.000  -0.000   1.225
 -0.011   0.000  -0.000  -0.618   0.000   0.004  -0.000   0.000
 -0.000  -0.011  -0.000   0.000  -0.616   0.000   0.004   0.000
  0.000   0.000  -0.001   0.000   0.000   0.000  -0.000   0.000
 -0.000  -0.000   0.000  -0.000   0.000   0.000   0.000  -0.000
 -0.000  -0.000   0.000   0.000   0.000   0.000   0.000  -0.000
  0.000  -0.000  -0.000  -0.000  -0.000   0.000   0.000   0.000
 -0.000   0.000   0.000  -0.000  -0.000   0.000   0.000  -0.000
  0.000   0.000  -0.000  -0.000  -0.000  -0.000  -0.000   0.000
 -0.000   0.000   0.000   0.000   0.000   0.000  -0.000  -0.000
  0.000  -0.000  -0.000   0.000   0.000  -0.000   0.000   0.000
 pseudopotential strength for first ion, spin component:           2
 -4.355   0.000   0.000  -0.030   0.000  -1.103  -0.000  -0.000
  0.000  -4.330   0.000  -0.000  -0.030  -0.000  -1.111  -0.000
  0.000   0.000  -4.352  -0.000  -0.000  -0.000  -0.000  -1.104
 -0.030  -0.000  -0.000  -4.330   0.000   0.010   0.000   0.000
  0.000  -0.030  -0.000   0.000  -4.355  -0.000   0.010   0.000
 -1.103  -0.000  -0.000   0.010  -0.000   1.397   0.000   0.000
 -0.000  -1.111  -0.000   0.000   0.010   0.000   1.400   0.000
 -0.000  -0.000  -1.104   0.000   0.000   0.000   0.000   1.398
  0.010   0.000   0.000  -1.111  -0.000  -0.003  -0.000  -0.000
 -0.000   0.010   0.000  -0.000  -1.103   0.000  -0.003  -0.000
  0.000  -0.000  -0.002  -0.000  -0.000   0.000  -0.000   0.000
 -0.000   0.000   0.000   0.000   0.000   0.000   0.000  -0.000
 -0.000  -0.000   0.000   0.000   0.000   0.000   0.000  -0.000
  0.000  -0.000  -0.000  -0.000  -0.000   0.000   0.000   0.000
 -0.000   0.000   0.000  -0.000  -0.000   0.000   0.000  -0.000
  0.000   0.000  -0.000  -0.000  -0.000  -0.000  -0.000   0.000
 -0.000   0.000   0.000   0.000   0.000   0.000  -0.000  -0.000
  0.000  -0.000  -0.000   0.000   0.000  -0.000   0.000   0.000
 total augmentation occupancy for first ion, spin component:           1
  1.578   0.000   0.000   0.044   0.000   0.087   0.000   0.000   0.031   0.000   0.000   0.000   0.000   0.000   0.000   0.000
  0.000   1.574  -0.000   0.000   0.044   0.000   0.061  -0.000   0.000   0.031  -0.000   0.000   0.000   0.000   0.000   0.000
  0.000  -0.000   1.593   0.000   0.000   0.000  -0.000   0.111   0.000   0.000   0.003  -0.002   0.000   0.000   0.000   0.000
  0.044   0.000   0.000   1.574   0.000   0.031   0.000   0.000   0.061   0.000   0.000   0.000   0.000   0.000   0.000   0.000
  0.000   0.044   0.000   0.000   1.578   0.000   0.031   0.000   0.000   0.087  -0.000  -0.000   0.000   0.000   0.000   0.000
  0.087   0.000   0.000   0.031   0.000   0.138   0.000   0.000   0.002   0.000   0.000   0.000   0.000   0.000   0.000   0.000
  0.000   0.061  -0.000   0.000   0.031   0.000   0.139  -0.000   0.000   0.002  -0.000   0.000   0.000   0.000   0.000   0.000
  0.000  -0.000   0.111   0.000   0.000   0.000  -0.000   0.140   0.000  -0.000  -0.003  -0.000   0.000   0.000   0.000   0.000
  0.031   0.000   0.000   0.061   0.000   0.002   0.000   0.000   0.139   0.000   0.000   0.000   0.000   0.000   0.000   0.000
  0.000   0.031   0.000   0.000   0.087   0.000   0.002  -0.000   0.000   0.138  -0.000  -0.000   0.000   0.000   0.000   0.000
  0.000  -0.000   0.003   0.000  -0.000   0.000  -0.000  -0.003   0.000  -0.000   1.377  -0.388   0.000   0.000   0.000   0.000
  0.000   0.000  -0.002   0.000  -0.000   0.000   0.000  -0.000   0.000  -0.000  -0.388   0.139   0.000   0.000   0.000   0.000
  0.000   0.000   0.000   0.000   0.000   0.000   0.000   0.000   0.000   0.000   0.000   0.000   0.228  -0.000   0.000  -0.016
  0.000   0.000   0.000   0.000   0.000   0.000   0.000   0.000   0.000   0.000   0.000   0.000  -0.000   0.232   0.000   0.000
  0.000   0.000   0.000   0.000   0.000   0.000   0.000   0.000   0.000   0.000   0.000   0.000   0.000   0.000   0.228   0.000
  0.000   0.000   0.000   0.000   0.000   0.000   0.000   0.000   0.000   0.000   0.000   0.000  -0.016   0.000   0.000   0.001
  0.000   0.000   0.000   0.000   0.000   0.000   0.000   0.000   0.000   0.000   0.000   0.000   0.000  -0.016   0.000  -0.000
  0.000   0.000   0.000   0.000   0.000   0.000   0.000   0.000   0.000   0.000   0.000   0.000   0.000   0.000  -0.016   0.000
 total augmentation occupancy for first ion, spin component:           2
  0.282   0.000   0.000  -0.050   0.000  -0.192   0.000   0.000   0.002   0.000   0.000   0.000   0.000   0.000   0.000   0.000
  0.000   0.299   0.000   0.000  -0.050   0.000  -0.194   0.000   0.000   0.002   0.000   0.000   0.000   0.000   0.000   0.000
  0.000   0.000   0.268   0.000  -0.000   0.000  -0.000  -0.197   0.000   0.000   0.002   0.001   0.000   0.000   0.000   0.000
 -0.050   0.000   0.000   0.299   0.000   0.002   0.000   0.000  -0.194   0.000   0.000   0.000   0.000   0.000   0.000   0.000
  0.000  -0.050  -0.000   0.000   0.282   0.000   0.002   0.000   0.000  -0.192   0.000   0.000   0.000   0.000   0.000   0.000
 -0.192   0.000   0.000   0.002   0.000   0.022   0.000   0.000  -0.001   0.000   0.000   0.000   0.000   0.000   0.000   0.000
  0.000  -0.194  -0.000   0.000   0.002   0.000   0.025   0.000   0.000  -0.001   0.000  -0.000   0.000   0.000   0.000   0.000
  0.000   0.000  -0.197   0.000   0.000   0.000   0.000   0.021   0.000   0.000  -0.003  -0.000   0.000   0.000   0.000   0.000
  0.002   0.000   0.000  -0.194   0.000  -0.001   0.000   0.000   0.025   0.000   0.000   0.000   0.000   0.000   0.000   0.000
  0.000   0.002   0.000   0.000  -0.192   0.000  -0.001   0.000   0.000   0.022  -0.000   0.000   0.000   0.000   0.000   0.000
  0.000   0.000   0.002   0.000   0.000   0.000   0.000  -0.003   0.000  -0.000  -0.014   0.080   0.000   0.000   0.000   0.000
  0.000   0.000   0.001   0.000   0.000   0.000  -0.000  -0.000   0.000   0.000   0.080  -0.043   0.000   0.000   0.000   0.000
  0.000   0.000   0.000   0.000   0.000   0.000   0.000   0.000   0.000   0.000   0.000   0.000  -0.020   0.000   0.000   0.003
  0.000   0.000   0.000   0.000   0.000   0.000   0.000   0.000   0.000   0.000   0.000   0.000   0.000  -0.024   0.000  -0.000
  0.000   0.000   0.000   0.000   0.000   0.000   0.000   0.000   0.000   0.000   0.000   0.000   0.000   0.000  -0.020   0.000
  0.000   0.000   0.000   0.000   0.000   0.000   0.000   0.000   0.000   0.000   0.000   0.000   0.003  -0.000   0.000  -0.000
  0.000   0.000   0.000   0.000   0.000   0.000   0.000   0.000   0.000   0.000   0.000   0.000  -0.000   0.003   0.000  -0.000
  0.000   0.000   0.000   0.000   0.000   0.000   0.000   0.000   0.000   0.000   0.000   0.000   0.000   0.000   0.003   0.000


------------------------ aborting loop because EDIFF is reached ----------------------------------------


 


 total charge     
 
# of ion       s       p       d       tot
------------------------------------------
    1        0.491   0.517   7.257   8.265
    2        0.490   0.516   7.258   8.265
    3        0.490   0.520   7.250   8.260
    4        0.490   0.520   7.250   8.260
--------------------------------------------------
tot          1.961   2.074  29.015  33.049
 


 magnetization (x)
 
# of ion       s       p       d       tot
------------------------------------------
    1       -0.014  -0.051   1.687   1.621
    2       -0.015  -0.052   1.686   1.619
    3       -0.014  -0.053   1.708   1.640
    4       -0.014  -0.053   1.708   1.640
--------------------------------------------------
tot         -0.057  -0.210   6.788   6.521
 
    CHARGE:  cpu time    0.2055: real time    0.2055
    FORLOC:  cpu time    0.0003: real time    0.0003
    FORNL :  cpu time    0.3828: real time    0.3828
    STRESS:  cpu time    1.1546: real time    1.1548
    FORCOR:  cpu time    0.0086: real time    0.0086
    FORHAR:  cpu time    0.0013: real time    0.0013
    MIXING:  cpu time    0.0006: real time    0.0006
    OFIELD:  cpu time    0.0002: real time    0.0002

  FORCE on cell =-STRESS in cart. coord.  units (eV):
  Direction    XX          YY          ZZ          XY          YZ          ZX
  --------------------------------------------------------------------------------------
  Alpha Z   328.07336   328.07336   328.07336
  Ewald   -1012.63662 -1012.62025 -1011.60726     0.00000    -0.00000     0.00000
  Hartree   177.40959   177.41644   178.03468    -0.00000    -0.00000    -0.00000
  E(xc)    -184.98688  -184.98673  -184.97073     0.00016     0.00000     0.00000
  Local     315.49474   315.47146   313.92802    -0.00080     0.00000     0.00000
  n-local  -118.89911  -118.89884  -118.88127     0.35292    -0.01698    -0.05026
  augment   192.19731   192.19785   192.07633     0.00062     0.00000    -0.00000
  Kinetic   303.29000   303.29005   302.82885    -0.61211    -0.10007     0.00988
  Fock        0.00000     0.00000     0.00000     0.00000     0.00000     0.00000
  -------------------------------------------------------------------------------------
  Total      -0.05760    -0.05665    -0.51803     0.00000    -0.00000     0.00000
  in kB      -2.11263    -2.07782   -19.00096     0.00000    -0.00000     0.00000
  external pressure =       -7.73 kB  Pullay stress =        0.00 kB


 VOLUME and BASIS-vectors are now :
 -----------------------------------------------------------------------------
  energy-cutoff  :      334.96
  volume of cell :       43.68
      direct lattice vectors                 reciprocal lattice vectors
     2.490299050  0.000000000  0.000000000     0.401558198  0.231844017  0.000000000
    -1.245149525  2.156622400  0.000000000     0.000000000  0.463688034  0.000000000
     0.000000000  0.000000000  8.133282638     0.000000000  0.000000000  0.122951586

  length of vectors
     2.490299050  2.490264547  8.133282638     0.463681609  0.463688034  0.122951586


 FORCES acting on ions
    electron-ion (+dipol)            ewald-force                    non-local-force                 convergence-correction
 -----------------------------------------------------------------------------------------------
   0.227E-15 -.829E-14 0.820E-13   -.892E-15 -.187E-15 0.000E+00   -.631E-24 -.745E-23 0.824E-24   0.214E-13 -.130E-13 -.497E-13
   0.150E-13 0.142E-15 -.143E-13   -.590E-15 0.280E-15 0.000E+00   0.141E-23 0.691E-23 0.207E-23   0.187E-13 0.121E-14 -.987E-13
   0.885E-06 0.121E-02 -.230E-10   0.106E-11 -.120E-02 -.494E-13   -.701E-19 -.461E-04 0.951E-20   -.223E-07 -.640E-05 0.119E-12
   -.885E-06 -.121E-02 0.189E-10   -.106E-11 0.120E-02 0.494E-13   -.479E-20 0.461E-04 -.129E-18   0.223E-07 0.640E-05 0.145E-13
 -----------------------------------------------------------------------------------------------
   -.191E-12 0.415E-12 -.405E-11   -.155E-14 -.152E-13 -.202E-18   -.749E-19 0.000E+00 -.119E-18   0.633E-13 -.713E-13 -.146E-13
 
 
 POSITION                                       TOTAL-FORCE (eV/Angst)
 -----------------------------------------------------------------------------------
      0.00000      0.00000      0.00000        -0.000000     -0.000000     -0.000000
      0.00000      0.00000      4.06664        -0.000000     -0.000000     -0.000000
      1.24515      0.71887      2.03332         0.000000     -0.000048      0.000000
      0.00000      1.43775      6.09996        -0.000000      0.000048      0.000000
 -----------------------------------------------------------------------------------
    total drift:                               -0.000000      0.000000     -0.000000


--------------------------------------------------------------------------------------------------------



  FREE ENERGIE OF THE ION-ELECTRON SYSTEM (eV)
  ---------------------------------------------------
  free  energy   TOTEN  =       -28.41743309 eV

  energy  without entropy=      -28.41675367  energy(sigma->0) =      -28.41720662
 


--------------------------------------------------------------------------------------------------------


    POTLOK:  cpu time    0.0238: real time    0.0238


--------------------------------------------------------------------------------------------------------


 stress matrix after NEB project (eV)
     -0.05760      0.00000      0.00000
      0.00000     -0.05665     -0.00000
      0.00000     -0.00000     -0.51803
  FORCES: max atom, RMS     0.000048    0.000034
  FORCE total and by dimension    0.000068    0.000048
  Stress total and by dimension    0.524293    0.518032


--------------------------------------------------------------------------------------------------------


  
 reached required accuracy - stopping structural energy minimisation
     LOOP+:  cpu time   73.5050: real time   74.1230
    4ORBIT:  cpu time    0.0000: real time    0.0000
 


 total charge     
 
# of ion       s       p       d       tot
------------------------------------------
    1        0.491   0.517   7.257   8.265
    2        0.490   0.516   7.258   8.265
    3        0.490   0.520   7.250   8.260
    4        0.490   0.520   7.250   8.260
--------------------------------------------------
tot          1.961   2.074  29.015  33.049
 


 magnetization (x)
 
# of ion       s       p       d       tot
------------------------------------------
    1       -0.014  -0.051   1.687   1.621
    2       -0.015  -0.052   1.686   1.619
    3       -0.014  -0.053   1.708   1.640
    4       -0.014  -0.053   1.708   1.640
--------------------------------------------------
tot         -0.057  -0.210   6.788   6.521
 

 total amount of memory used by VASP MPI-rank0    59720. kBytes
=======================================================================

   base      :      30000. kBytes
   nonl-proj :      18729. kBytes
   fftplans  :        182. kBytes
   grid      :       1314. kBytes
   one-center:        124. kBytes
   wavefun   :       9371. kBytes
 
  
  
 General timing and accounting informations for this job:
 ========================================================
  
                  Total CPU time used (sec):       77.364
                            User time (sec):       76.477
                          System time (sec):        0.886
                         Elapsed time (sec):       82.848
  
                   Maximum memory used (kb):       94012.
                   Average memory used (kb):           0.
  
                          Minor page faults:        13478
                          Major page faults:           72
                 Voluntary context switches:         1441
