   8   8   1   0
  0.2779555E+02  0.6058360E-09  0.6058360E-09  0.6058360E-09  0.5000000E-15
  1.000000000000000E-004
  CAR 
 unknown system                          
     14.41977754    -11.39720806  301      4.29634683      1.00000000
    -11.397  0.0000E+00  0.0000E+00
    -11.311  0.0000E+00  0.0000E+00
    -11.225  0.0000E+00  0.0000E+00
    -11.139  0.0000E+00  0.0000E+00
    -11.053  0.0000E+00  0.0000E+00
    -10.967  0.0000E+00  0.0000E+00
    -10.881  0.0000E+00  0.0000E+00
    -10.795  0.0000E+00  0.0000E+00
    -10.709  0.0000E+00  0.0000E+00
    -10.623  0.0000E+00  0.0000E+00
    -10.537  0.0000E+00  0.0000E+00
    -10.451  0.1252E-09  0.1078E-10
    -10.365  0.1062E-03  0.9138E-05
    -10.278  0.5338E+00  0.4595E-01
    -10.192  0.2908E+02  0.2548E+01
    -10.106  0.5305E+02  0.7113E+01
    -10.020  0.5425E+02  0.1178E+02
     -9.934  0.1764E+03  0.2696E+02
     -9.848  0.1420E+03  0.3918E+02
     -9.762  0.9512E+01  0.4000E+02
     -9.676  0.6499E-02  0.4000E+02
     -9.590  0.2037E-07  0.4000E+02
     -9.504  0.0000E+00  0.4000E+02
     -9.418  0.0000E+00  0.4000E+02
     -9.332  0.0000E+00  0.4000E+02
     -9.246  0.0000E+00  0.4000E+02
     -9.160  0.0000E+00  0.4000E+02
     -9.074  0.0000E+00  0.4000E+02
     -8.988  0.0000E+00  0.4000E+02
     -8.902  0.0000E+00  0.4000E+02
     -8.816  0.0000E+00  0.4000E+02
     -8.729  0.0000E+00  0.4000E+02
     -8.643  0.0000E+00  0.4000E+02
     -8.557  0.0000E+00  0.4000E+02
     -8.471  0.0000E+00  0.4000E+02
     -8.385  0.0000E+00  0.4000E+02
     -8.299  0.0000E+00  0.4000E+02
     -8.213  0.0000E+00  0.4000E+02
     -8.127  0.0000E+00  0.4000E+02
     -8.041  0.0000E+00  0.4000E+02
     -7.955  0.0000E+00  0.4000E+02
     -7.869  0.3507E-14  0.4000E+02
     -7.783  0.3226E-07  0.4000E+02
     -7.697  0.9652E-03  0.4000E+02
     -7.611  0.1305E+00  0.4001E+02
     -7.525  0.2250E+00  0.4003E+02
     -7.439  0.1370E+00  0.4004E+02
     -7.353  0.1634E+01  0.4018E+02
     -7.266  0.4489E+00  0.4022E+02
     -7.180  0.2204E+01  0.4041E+02
     -7.094  0.2097E+01  0.4059E+02
     -7.008  0.1062E+01  0.4068E+02
     -6.922  0.1810E+01  0.4084E+02
     -6.836  0.3472E+00  0.4087E+02
     -6.750  0.1690E+01  0.4101E+02
     -6.664  0.1974E+01  0.4118E+02
     -6.578  0.6586E+01  0.4175E+02
     -6.492  0.5504E+01  0.4222E+02
     -6.406  0.3528E+01  0.4253E+02
     -6.320  0.4188E-01  0.4253E+02
     -6.234  0.1825E+01  0.4269E+02
     -6.148  0.9725E+01  0.4353E+02
     -6.062  0.3310E+01  0.4381E+02
     -5.976  0.3298E+01  0.4409E+02
     -5.890  0.1469E+02  0.4536E+02
     -5.804  0.1030E+02  0.4624E+02
     -5.717  0.6989E+01  0.4685E+02
     -5.631  0.2899E+01  0.4710E+02
     -5.545  0.7915E+01  0.4778E+02
     -5.459  0.2566E+01  0.4800E+02
     -5.373  0.2681E-01  0.4800E+02
     -5.287  0.2200E-05  0.4800E+02
     -5.201  0.6923E-12  0.4800E+02
     -5.115  0.0000E+00  0.4800E+02
     -5.029  0.0000E+00  0.4800E+02
     -4.943  0.0000E+00  0.4800E+02
     -4.857  0.0000E+00  0.4800E+02
     -4.771  0.0000E+00  0.4800E+02
     -4.685  0.0000E+00  0.4800E+02
     -4.599  0.0000E+00  0.4800E+02
     -4.513  0.0000E+00  0.4800E+02
     -4.427  0.0000E+00  0.4800E+02
     -4.341  0.0000E+00  0.4800E+02
     -4.255  0.0000E+00  0.4800E+02
     -4.168  0.0000E+00  0.4800E+02
     -4.082  0.0000E+00  0.4800E+02
     -3.996  0.0000E+00  0.4800E+02
     -3.910  0.0000E+00  0.4800E+02
     -3.824  0.0000E+00  0.4800E+02
     -3.738  0.0000E+00  0.4800E+02
     -3.652  0.0000E+00  0.4800E+02
     -3.566  0.0000E+00  0.4800E+02
     -3.480  0.0000E+00  0.4800E+02
     -3.394  0.0000E+00  0.4800E+02
     -3.308  0.0000E+00  0.4800E+02
     -3.222  0.0000E+00  0.4800E+02
     -3.136  0.0000E+00  0.4800E+02
     -3.050  0.0000E+00  0.4800E+02
     -2.964  0.0000E+00  0.4800E+02
     -2.878  0.0000E+00  0.4800E+02
     -2.792  0.0000E+00  0.4800E+02
     -2.705  0.0000E+00  0.4800E+02
     -2.619  0.0000E+00  0.4800E+02
     -2.533  0.0000E+00  0.4800E+02
     -2.447  0.0000E+00  0.4800E+02
     -2.361  0.0000E+00  0.4800E+02
     -2.275  0.0000E+00  0.4800E+02
     -2.189  0.0000E+00  0.4800E+02
     -2.103  0.0000E+00  0.4800E+02
     -2.017  0.0000E+00  0.4800E+02
     -1.931  0.0000E+00  0.4800E+02
     -1.845  0.3495E-10  0.4800E+02
     -1.759  0.2254E-04  0.4800E+02
     -1.673  0.5314E-01  0.4800E+02
     -1.587  0.1488E+01  0.4813E+02
     -1.501  0.6452E+01  0.4869E+02
     -1.415  0.7744E+01  0.4935E+02
     -1.329  0.7617E+01  0.5001E+02
     -1.243  0.1111E+02  0.5097E+02
     -1.156  0.1284E+02  0.5207E+02
     -1.070  0.3916E+01  0.5241E+02
     -0.984  0.5885E+01  0.5291E+02
     -0.898  0.1879E+01  0.5308E+02
     -0.812  0.3614E+00  0.5311E+02
     -0.726  0.3065E+01  0.5337E+02
     -0.640  0.1133E+01  0.5347E+02
     -0.554  0.1710E+01  0.5362E+02
     -0.468  0.6507E+01  0.5418E+02
     -0.382  0.4984E+00  0.5422E+02
     -0.296  0.2616E-03  0.5422E+02
     -0.210  0.5503E-09  0.5422E+02
     -0.124  0.6028E-04  0.5422E+02
     -0.038  0.2432E+00  0.5424E+02
      0.048  0.5849E+01  0.5474E+02
      0.134  0.2609E+01  0.5497E+02
      0.220  0.1360E-01  0.5497E+02
      0.306  0.3238E-06  0.5497E+02
      0.393  0.1734E-02  0.5497E+02
      0.479  0.8170E+00  0.5504E+02
      0.565  0.3867E+01  0.5537E+02
      0.651  0.3977E+00  0.5541E+02
      0.737  0.3296E-03  0.5541E+02
      0.823  0.2597E-05  0.5541E+02
      0.909  0.3393E-01  0.5541E+02
      0.995  0.2772E+01  0.5565E+02
      1.081  0.8759E+01  0.5640E+02
      1.167  0.1505E+01  0.5653E+02
      1.253  0.2564E+00  0.5655E+02
      1.339  0.4779E+01  0.5696E+02
      1.425  0.4994E+01  0.5739E+02
      1.511  0.9461E+01  0.5821E+02
      1.597  0.1252E+02  0.5929E+02
      1.683  0.1045E+02  0.6018E+02
      1.769  0.5386E+01  0.6065E+02
      1.856  0.9781E-01  0.6066E+02
      1.942  0.8170E+00  0.6073E+02
      2.028  0.1319E+01  0.6084E+02
      2.114  0.7409E+00  0.6090E+02
      2.200  0.1023E+02  0.6179E+02
      2.286  0.1805E+02  0.6334E+02
      2.372  0.1589E+02  0.6471E+02
      2.458  0.1156E+01  0.6481E+02
      2.544  0.6093E+01  0.6533E+02
      2.630  0.6905E+01  0.6592E+02
      2.716  0.4786E+01  0.6634E+02
      2.802  0.7148E+01  0.6695E+02
      2.888  0.4700E+01  0.6736E+02
      2.974  0.6935E+00  0.6742E+02
      3.060  0.4899E+01  0.6784E+02
      3.146  0.6691E+01  0.6841E+02
      3.232  0.1368E+02  0.6959E+02
      3.318  0.1135E+02  0.7057E+02
      3.405  0.1037E+01  0.7066E+02
      3.491  0.1666E-02  0.7066E+02
      3.577  0.7058E-03  0.7066E+02
      3.663  0.6639E+00  0.7071E+02
      3.749  0.6725E+01  0.7129E+02
      3.835  0.2850E+01  0.7154E+02
      3.921  0.2822E+00  0.7156E+02
      4.007  0.9045E+00  0.7164E+02
      4.093  0.3229E+01  0.7192E+02
      4.179  0.2352E+00  0.7194E+02
      4.265  0.3523E+00  0.7197E+02
      4.351  0.7092E+00  0.7203E+02
      4.437  0.2592E-01  0.7203E+02
      4.523  0.5504E-05  0.7203E+02
      4.609  0.4051E-11  0.7203E+02
      4.695  0.0000E+00  0.7203E+02
      4.781  0.8063E-16  0.7203E+02
      4.867  0.3184E-08  0.7203E+02
      4.954  0.4304E-03  0.7203E+02
      5.040  0.2297E+00  0.7205E+02
      5.126  0.1112E+01  0.7215E+02
      5.212  0.1102E+00  0.7216E+02
      5.298  0.6432E-01  0.7216E+02
      5.384  0.1863E+01  0.7232E+02
      5.470  0.9712E+00  0.7241E+02
      5.556  0.6233E-02  0.7241E+02
      5.642  0.2803E-01  0.7241E+02
      5.728  0.7202E+00  0.7247E+02
      5.814  0.5643E+00  0.7252E+02
      5.900  0.3385E+01  0.7281E+02
      5.986  0.4462E+01  0.7319E+02
      6.072  0.6009E+01  0.7371E+02
      6.158  0.4999E+01  0.7414E+02
      6.244  0.7956E+01  0.7483E+02
      6.330  0.4272E+01  0.7519E+02
      6.417  0.2955E+01  0.7545E+02
      6.503  0.7857E+01  0.7612E+02
      6.589  0.2221E+01  0.7632E+02
      6.675  0.3830E+01  0.7665E+02
      6.761  0.3566E+01  0.7695E+02
      6.847  0.5741E+01  0.7745E+02
      6.933  0.9248E+01  0.7824E+02
      7.019  0.1408E+02  0.7945E+02
      7.105  0.3899E+01  0.7979E+02
      7.191  0.1864E+01  0.7995E+02
      7.277  0.6581E+01  0.8052E+02
      7.363  0.6102E+01  0.8104E+02
      7.449  0.1086E+02  0.8198E+02
      7.535  0.4232E+01  0.8234E+02
      7.621  0.4976E-01  0.8234E+02
      7.707  0.2999E-05  0.8234E+02
      7.793  0.5999E-12  0.8234E+02
      7.879  0.2442E-09  0.8234E+02
      7.966  0.8142E-04  0.8234E+02
      8.052  0.1326E+00  0.8236E+02
      8.138  0.3128E+01  0.8262E+02
      8.224  0.7022E+01  0.8323E+02
      8.310  0.1207E+02  0.8427E+02
      8.396  0.6253E+01  0.8481E+02
      8.482  0.1096E+02  0.8575E+02
      8.568  0.5053E+01  0.8618E+02
      8.654  0.5066E+01  0.8662E+02
      8.740  0.3756E+01  0.8694E+02
      8.826  0.5321E+01  0.8740E+02
      8.912  0.1449E+02  0.8865E+02
      8.998  0.1924E+01  0.8881E+02
      9.084  0.2453E+00  0.8883E+02
      9.170  0.5511E+01  0.8931E+02
      9.256  0.1772E+02  0.9083E+02
      9.342  0.1365E+02  0.9201E+02
      9.428  0.3117E+01  0.9228E+02
      9.515  0.3335E+01  0.9256E+02
      9.601  0.2748E+01  0.9280E+02
      9.687  0.6309E+01  0.9334E+02
      9.773  0.6797E+00  0.9340E+02
      9.859  0.6042E+01  0.9392E+02
      9.945  0.2958E+01  0.9417E+02
     10.031  0.8340E+01  0.9489E+02
     10.117  0.5440E+01  0.9536E+02
     10.203  0.5166E+00  0.9541E+02
     10.289  0.1667E+01  0.9555E+02
     10.375  0.1629E+00  0.9556E+02
     10.461  0.1162E-03  0.9556E+02
     10.547  0.3059E-09  0.9556E+02
     10.633  0.0000E+00  0.9556E+02
     10.719  0.0000E+00  0.9556E+02
     10.805  0.0000E+00  0.9556E+02
     10.891  0.0000E+00  0.9556E+02
     10.978  0.0000E+00  0.9556E+02
     11.064  0.0000E+00  0.9556E+02
     11.150  0.0000E+00  0.9556E+02
     11.236  0.8286E-11  0.9556E+02
     11.322  0.1411E-04  0.9556E+02
     11.408  0.8254E-01  0.9557E+02
     11.494  0.2739E+01  0.9581E+02
     11.580  0.1839E+01  0.9596E+02
     11.666  0.6040E-01  0.9597E+02
     11.752  0.7395E-04  0.9597E+02
     11.838  0.4289E-09  0.9597E+02
     11.924  0.0000E+00  0.9597E+02
     12.010  0.0000E+00  0.9597E+02
     12.096  0.0000E+00  0.9597E+02
     12.182  0.0000E+00  0.9597E+02
     12.268  0.0000E+00  0.9597E+02
     12.354  0.0000E+00  0.9597E+02
     12.440  0.0000E+00  0.9597E+02
     12.527  0.0000E+00  0.9597E+02
     12.613  0.0000E+00  0.9597E+02
     12.699  0.0000E+00  0.9597E+02
     12.785  0.0000E+00  0.9597E+02
     12.871  0.0000E+00  0.9597E+02
     12.957  0.4032E-16  0.9597E+02
     13.043  0.1590E-08  0.9597E+02
     13.129  0.1639E-03  0.9597E+02
     13.215  0.6812E-01  0.9597E+02
     13.301  0.2728E+00  0.9600E+02
     13.387  0.2203E-01  0.9600E+02
     13.473  0.1236E-04  0.9600E+02
     13.559  0.2523E-10  0.9600E+02
     13.645  0.0000E+00  0.9600E+02
     13.731  0.0000E+00  0.9600E+02
     13.817  0.0000E+00  0.9600E+02
     13.903  0.0000E+00  0.9600E+02
     13.989  0.0000E+00  0.9600E+02
     14.076  0.0000E+00  0.9600E+02
     14.162  0.0000E+00  0.9600E+02
     14.248  0.0000E+00  0.9600E+02
     14.334  0.0000E+00  0.9600E+02
     14.420  0.0000E+00  0.9600E+02
     14.41977754    -11.39720806  301      4.29634683      1.00000000
    -11.397  0.0000E+00  0.0000E+00  0.0000E+00  0.0000E+00  0.0000E+00  0.0000E+00  0.0000E+00  0.0000E+00  0.0000E+00
    -11.311  0.0000E+00  0.0000E+00  0.0000E+00  0.0000E+00  0.0000E+00  0.0000E+00  0.0000E+00  0.0000E+00  0.0000E+00
    -11.225  0.0000E+00  0.0000E+00  0.0000E+00  0.0000E+00  0.0000E+00  0.0000E+00  0.0000E+00  0.0000E+00  0.0000E+00
    -11.139  0.0000E+00  0.0000E+00  0.0000E+00  0.0000E+00  0.0000E+00  0.0000E+00  0.0000E+00  0.0000E+00  0.0000E+00
    -11.053  0.0000E+00  0.0000E+00  0.0000E+00  0.0000E+00  0.0000E+00  0.0000E+00  0.0000E+00  0.0000E+00  0.0000E+00
    -10.967  0.0000E+00  0.0000E+00  0.0000E+00  0.0000E+00  0.0000E+00  0.0000E+00  0.0000E+00  0.0000E+00  0.0000E+00
    -10.881  0.0000E+00  0.0000E+00  0.0000E+00  0.0000E+00  0.0000E+00  0.0000E+00  0.0000E+00  0.0000E+00  0.0000E+00
    -10.795  0.0000E+00  0.0000E+00  0.0000E+00  0.0000E+00  0.0000E+00  0.0000E+00  0.0000E+00  0.0000E+00  0.0000E+00
    -10.709  0.0000E+00  0.0000E+00  0.0000E+00  0.0000E+00  0.0000E+00  0.0000E+00  0.0000E+00  0.0000E+00  0.0000E+00
    -10.623  0.0000E+00  0.0000E+00  0.0000E+00  0.0000E+00  0.0000E+00  0.0000E+00  0.0000E+00  0.0000E+00  0.0000E+00
    -10.537  0.0000E+00  0.0000E+00  0.0000E+00  0.0000E+00  0.0000E+00  0.0000E+00  0.0000E+00  0.0000E+00  0.0000E+00
    -10.451  0.6282E-15  0.1834E-13  0.1963E-13  0.1064E-13  0.1139E-10  0.6487E-11  0.1027E-14  0.1063E-10  0.1853E-15
    -10.365  0.2037E-08  0.1587E-07  0.1819E-07  0.7803E-08  0.1031E-04  0.4834E-05  0.2714E-08  0.9034E-05  0.6648E-09
    -10.278  0.2902E-04  0.7750E-04  0.9112E-04  0.4153E-04  0.5060E-01  0.2658E-01  0.3196E-04  0.4446E-01  0.9680E-05
    -10.192  0.3366E-02  0.3914E-02  0.4405E-02  0.2594E-02  0.2460E+01  0.1822E+01  0.2929E-02  0.2355E+01  0.9878E-03
    -10.106  0.1072E-01  0.5229E-02  0.5883E-02  0.5609E-02  0.3521E+01  0.5036E+01  0.8085E-02  0.3623E+01  0.3914E-02
    -10.020  0.2728E-02  0.1045E-02  0.9667E-03  0.1319E-02  0.4335E+01  0.3883E+01  0.3151E+00  0.4338E+01  0.2164E+00
     -9.934  0.8235E-03  0.1705E-02  0.1388E-02  0.1775E-02  0.1049E+02  0.9571E+01  0.6194E+01  0.1050E+02  0.6198E+01
     -9.848  0.5334E-03  0.2036E-03  0.1504E-03  0.3021E-03  0.1318E+01  0.1827E+01  0.1505E+02  0.1326E+01  0.1522E+02
     -9.762  0.1757E-04  0.3727E-05  0.2995E-05  0.4134E-05  0.3796E-01  0.3129E-01  0.1150E+01  0.2616E-01  0.1084E+01
     -9.676  0.6583E-08  0.2029E-08  0.1747E-08  0.2065E-08  0.2248E-04  0.1365E-04  0.8192E-03  0.1381E-04  0.7231E-03
     -9.590  0.1401E-13  0.4986E-14  0.4488E-14  0.5390E-14  0.5798E-10  0.3132E-10  0.2636E-08  0.3303E-10  0.2234E-08
     -9.504  0.0000E+00  0.0000E+00  0.0000E+00  0.0000E+00  0.0000E+00  0.0000E+00  0.0000E+00  0.0000E+00  0.0000E+00
     -9.418  0.0000E+00  0.0000E+00  0.0000E+00  0.0000E+00  0.0000E+00  0.0000E+00  0.0000E+00  0.0000E+00  0.0000E+00
     -9.332  0.0000E+00  0.0000E+00  0.0000E+00  0.0000E+00  0.0000E+00  0.0000E+00  0.0000E+00  0.0000E+00  0.0000E+00
     -9.246  0.0000E+00  0.0000E+00  0.0000E+00  0.0000E+00  0.0000E+00  0.0000E+00  0.0000E+00  0.0000E+00  0.0000E+00
     -9.160  0.0000E+00  0.0000E+00  0.0000E+00  0.0000E+00  0.0000E+00  0.0000E+00  0.0000E+00  0.0000E+00  0.0000E+00
     -9.074  0.0000E+00  0.0000E+00  0.0000E+00  0.0000E+00  0.0000E+00  0.0000E+00  0.0000E+00  0.0000E+00  0.0000E+00
     -8.988  0.0000E+00  0.0000E+00  0.0000E+00  0.0000E+00  0.0000E+00  0.0000E+00  0.0000E+00  0.0000E+00  0.0000E+00
     -8.902  0.0000E+00  0.0000E+00  0.0000E+00  0.0000E+00  0.0000E+00  0.0000E+00  0.0000E+00  0.0000E+00  0.0000E+00
     -8.816  0.0000E+00  0.0000E+00  0.0000E+00  0.0000E+00  0.0000E+00  0.0000E+00  0.0000E+00  0.0000E+00  0.0000E+00
     -8.729  0.0000E+00  0.0000E+00  0.0000E+00  0.0000E+00  0.0000E+00  0.0000E+00  0.0000E+00  0.0000E+00  0.0000E+00
     -8.643  0.0000E+00  0.0000E+00  0.0000E+00  0.0000E+00  0.0000E+00  0.0000E+00  0.0000E+00  0.0000E+00  0.0000E+00
     -8.557  0.0000E+00  0.0000E+00  0.0000E+00  0.0000E+00  0.0000E+00  0.0000E+00  0.0000E+00  0.0000E+00  0.0000E+00
     -8.471  0.0000E+00  0.0000E+00  0.0000E+00  0.0000E+00  0.0000E+00  0.0000E+00  0.0000E+00  0.0000E+00  0.0000E+00
     -8.385  0.0000E+00  0.0000E+00  0.0000E+00  0.0000E+00  0.0000E+00  0.0000E+00  0.0000E+00  0.0000E+00  0.0000E+00
     -8.299  0.0000E+00  0.0000E+00  0.0000E+00  0.0000E+00  0.0000E+00  0.0000E+00  0.0000E+00  0.0000E+00  0.0000E+00
     -8.213  0.0000E+00  0.0000E+00  0.0000E+00  0.0000E+00  0.0000E+00  0.0000E+00  0.0000E+00  0.0000E+00  0.0000E+00
     -8.127  0.0000E+00  0.0000E+00  0.0000E+00  0.0000E+00  0.0000E+00  0.0000E+00  0.0000E+00  0.0000E+00  0.0000E+00
     -8.041  0.0000E+00  0.0000E+00  0.0000E+00  0.0000E+00  0.0000E+00  0.0000E+00  0.0000E+00  0.0000E+00  0.0000E+00
     -7.955  0.0000E+00  0.0000E+00  0.0000E+00  0.0000E+00  0.0000E+00  0.0000E+00  0.0000E+00  0.0000E+00  0.0000E+00
     -7.869  0.1389E-15  0.3291E-29  0.2751E-30  0.1348E-28  0.1494E-29  0.1004E-28  0.4839E-28  0.1804E-28  0.7115E-30
     -7.783  0.1278E-08  0.3027E-22  0.2530E-23  0.1240E-21  0.1374E-22  0.9238E-22  0.4451E-21  0.1660E-21  0.6545E-23
     -7.697  0.3823E-04  0.9055E-18  0.7570E-19  0.3711E-17  0.4112E-18  0.2764E-17  0.1332E-16  0.4965E-17  0.1958E-18
     -7.611  0.5168E-02  0.1224E-15  0.1023E-16  0.1459E-12  0.5559E-16  0.4974E-12  0.2295E-14  0.6712E-15  0.1511E-14
     -7.525  0.8910E-02  0.2110E-15  0.1766E-16  0.7250E-07  0.9581E-16  0.2478E-06  0.2467E-09  0.1157E-14  0.7401E-09
     -7.439  0.5099E-02  0.7558E-15  0.9407E-16  0.1314E-03  0.5407E-15  0.4493E-03  0.4472E-06  0.2254E-14  0.1342E-05
     -7.353  0.6062E-01  0.2728E-08  0.2135E-09  0.1650E-02  0.1931E-08  0.5638E-02  0.5613E-05  0.8124E-08  0.1684E-04
     -7.266  0.1656E-01  0.3341E-04  0.2614E-05  0.4504E-03  0.2364E-04  0.1525E-02  0.1780E-05  0.9949E-04  0.4257E-05
     -7.180  0.7630E-01  0.2058E-02  0.1611E-03  0.2059E-02  0.1457E-02  0.6134E-02  0.2225E-04  0.6130E-02  0.1041E-07
     -7.094  0.7258E-01  0.1960E-02  0.1597E-03  0.1960E-02  0.1403E-02  0.5836E-02  0.2110E-04  0.5836E-02  0.1045E-12
     -7.008  0.3422E-01  0.9888E-03  0.9634E-03  0.9888E-03  0.2950E-02  0.3013E-02  0.2987E-06  0.3013E-02  0.1812E-12
     -6.922  0.5823E-01  0.1686E-02  0.1686E-02  0.1687E-02  0.5140E-02  0.5144E-02  0.1048E-07  0.5140E-02  0.3137E-07
     -6.836  0.1029E-01  0.5205E-04  0.5205E-04  0.1217E-02  0.1587E-03  0.2986E-02  0.7046E-05  0.1587E-03  0.2114E-04
     -6.750  0.4930E-01  0.3370E-05  0.1722E-05  0.6760E-02  0.8986E-05  0.1640E-01  0.4090E-04  0.7334E-05  0.1225E-03
     -6.664  0.5328E-01  0.1234E-02  0.6287E-03  0.7266E-02  0.3288E-02  0.1655E-01  0.5229E-04  0.2682E-02  0.7072E-04
     -6.578  0.1758E+00  0.4615E-02  0.2409E-02  0.2396E-01  0.1234E-01  0.5412E-01  0.1738E-03  0.1013E-01  0.2074E-03
     -6.492  0.1357E+00  0.5201E-02  0.5040E-02  0.1848E-01  0.1543E-01  0.4120E-01  0.5106E-04  0.1527E-01  0.1303E-03
     -6.406  0.8629E-01  0.3416E-02  0.3416E-02  0.1175E-01  0.1021E-01  0.2616E-01  0.2697E-04  0.1021E-01  0.8090E-04
     -6.320  0.9798E-03  0.5370E-04  0.4631E-04  0.1330E-03  0.1442E-03  0.2900E-03  0.4578E-06  0.1383E-03  0.7692E-06
     -6.234  0.3447E-01  0.4605E-02  0.3157E-02  0.4605E-02  0.1035E-01  0.9208E-02  0.3879E-04  0.9208E-02  0.3468E-10
     -6.148  0.1782E+00  0.2399E-01  0.1844E-01  0.2400E-01  0.5551E-01  0.5117E-01  0.1404E-03  0.5116E-01  0.6672E-07
     -6.062  0.5715E-01  0.7054E-02  0.6073E-02  0.1039E-01  0.1683E-01  0.2191E-01  0.3368E-04  0.1609E-01  0.3112E-04
     -5.976  0.4273E-01  0.6315E-02  0.2096E-02  0.2081E-01  0.5348E-02  0.3656E-01  0.7988E-04  0.1123E-01  0.2070E-03
     -5.890  0.1694E+00  0.5183E-01  0.3181E-01  0.4772E-01  0.6953E-01  0.8820E-01  0.2981E-03  0.9745E-01  0.4659E-03
     -5.804  0.1092E+00  0.3709E-01  0.3474E-01  0.2026E-01  0.7283E-01  0.4016E-01  0.1580E-03  0.7529E-01  0.1278E-03
     -5.717  0.5165E-01  0.3292E-01  0.2873E-01  0.6660E-02  0.6221E-01  0.1162E-01  0.6687E-04  0.5952E-01  0.4924E-04
     -5.631  0.1272E-01  0.1006E-01  0.1720E-01  0.3592E-02  0.3202E-01  0.6386E-02  0.1518E-04  0.1795E-01  0.1015E-04
     -5.545  0.6339E-02  0.3184E-01  0.5301E-01  0.7808E-02  0.8923E-01  0.1361E-01  0.4636E-05  0.5370E-01  0.1997E-07
     -5.459  0.3174E-03  0.1432E-01  0.1538E-01  0.6160E-03  0.2612E-01  0.1023E-02  0.2316E-06  0.2433E-01  0.1566E-12
     -5.373  0.9900E-07  0.1567E-03  0.1570E-03  0.4163E-06  0.2735E-03  0.6597E-06  0.7223E-10  0.2729E-03  0.5835E-17
     -5.287  0.1090E-12  0.1283E-07  0.1283E-07  0.1215E-11  0.2259E-07  0.1875E-11  0.7952E-16  0.2259E-07  0.3726E-21
     -5.201  0.1907E-25  0.4033E-14  0.4033E-14  0.2149E-28  0.7120E-14  0.4644E-28  0.9396E-28  0.7120E-14  0.1098E-27
     -5.115  0.0000E+00  0.0000E+00  0.0000E+00  0.0000E+00  0.0000E+00  0.0000E+00  0.0000E+00  0.0000E+00  0.0000E+00
     -5.029  0.0000E+00  0.0000E+00  0.0000E+00  0.0000E+00  0.0000E+00  0.0000E+00  0.0000E+00  0.0000E+00  0.0000E+00
     -4.943  0.0000E+00  0.0000E+00  0.0000E+00  0.0000E+00  0.0000E+00  0.0000E+00  0.0000E+00  0.0000E+00  0.0000E+00
     -4.857  0.0000E+00  0.0000E+00  0.0000E+00  0.0000E+00  0.0000E+00  0.0000E+00  0.0000E+00  0.0000E+00  0.0000E+00
     -4.771  0.0000E+00  0.0000E+00  0.0000E+00  0.0000E+00  0.0000E+00  0.0000E+00  0.0000E+00  0.0000E+00  0.0000E+00
     -4.685  0.0000E+00  0.0000E+00  0.0000E+00  0.0000E+00  0.0000E+00  0.0000E+00  0.0000E+00  0.0000E+00  0.0000E+00
     -4.599  0.0000E+00  0.0000E+00  0.0000E+00  0.0000E+00  0.0000E+00  0.0000E+00  0.0000E+00  0.0000E+00  0.0000E+00
     -4.513  0.0000E+00  0.0000E+00  0.0000E+00  0.0000E+00  0.0000E+00  0.0000E+00  0.0000E+00  0.0000E+00  0.0000E+00
     -4.427  0.0000E+00  0.0000E+00  0.0000E+00  0.0000E+00  0.0000E+00  0.0000E+00  0.0000E+00  0.0000E+00  0.0000E+00
     -4.341  0.0000E+00  0.0000E+00  0.0000E+00  0.0000E+00  0.0000E+00  0.0000E+00  0.0000E+00  0.0000E+00  0.0000E+00
     -4.255  0.0000E+00  0.0000E+00  0.0000E+00  0.0000E+00  0.0000E+00  0.0000E+00  0.0000E+00  0.0000E+00  0.0000E+00
     -4.168  0.0000E+00  0.0000E+00  0.0000E+00  0.0000E+00  0.0000E+00  0.0000E+00  0.0000E+00  0.0000E+00  0.0000E+00
     -4.082  0.0000E+00  0.0000E+00  0.0000E+00  0.0000E+00  0.0000E+00  0.0000E+00  0.0000E+00  0.0000E+00  0.0000E+00
     -3.996  0.0000E+00  0.0000E+00  0.0000E+00  0.0000E+00  0.0000E+00  0.0000E+00  0.0000E+00  0.0000E+00  0.0000E+00
     -3.910  0.0000E+00  0.0000E+00  0.0000E+00  0.0000E+00  0.0000E+00  0.0000E+00  0.0000E+00  0.0000E+00  0.0000E+00
     -3.824  0.0000E+00  0.0000E+00  0.0000E+00  0.0000E+00  0.0000E+00  0.0000E+00  0.0000E+00  0.0000E+00  0.0000E+00
     -3.738  0.0000E+00  0.0000E+00  0.0000E+00  0.0000E+00  0.0000E+00  0.0000E+00  0.0000E+00  0.0000E+00  0.0000E+00
     -3.652  0.0000E+00  0.0000E+00  0.0000E+00  0.0000E+00  0.0000E+00  0.0000E+00  0.0000E+00  0.0000E+00  0.0000E+00
     -3.566  0.0000E+00  0.0000E+00  0.0000E+00  0.0000E+00  0.0000E+00  0.0000E+00  0.0000E+00  0.0000E+00  0.0000E+00
     -3.480  0.0000E+00  0.0000E+00  0.0000E+00  0.0000E+00  0.0000E+00  0.0000E+00  0.0000E+00  0.0000E+00  0.0000E+00
     -3.394  0.0000E+00  0.0000E+00  0.0000E+00  0.0000E+00  0.0000E+00  0.0000E+00  0.0000E+00  0.0000E+00  0.0000E+00
     -3.308  0.0000E+00  0.0000E+00  0.0000E+00  0.0000E+00  0.0000E+00  0.0000E+00  0.0000E+00  0.0000E+00  0.0000E+00
     -3.222  0.0000E+00  0.0000E+00  0.0000E+00  0.0000E+00  0.0000E+00  0.0000E+00  0.0000E+00  0.0000E+00  0.0000E+00
     -3.136  0.0000E+00  0.0000E+00  0.0000E+00  0.0000E+00  0.0000E+00  0.0000E+00  0.0000E+00  0.0000E+00  0.0000E+00
     -3.050  0.0000E+00  0.0000E+00  0.0000E+00  0.0000E+00  0.0000E+00  0.0000E+00  0.0000E+00  0.0000E+00  0.0000E+00
     -2.964  0.0000E+00  0.0000E+00  0.0000E+00  0.0000E+00  0.0000E+00  0.0000E+00  0.0000E+00  0.0000E+00  0.0000E+00
     -2.878  0.0000E+00  0.0000E+00  0.0000E+00  0.0000E+00  0.0000E+00  0.0000E+00  0.0000E+00  0.0000E+00  0.0000E+00
     -2.792  0.0000E+00  0.0000E+00  0.0000E+00  0.0000E+00  0.0000E+00  0.0000E+00  0.0000E+00  0.0000E+00  0.0000E+00
     -2.705  0.0000E+00  0.0000E+00  0.0000E+00  0.0000E+00  0.0000E+00  0.0000E+00  0.0000E+00  0.0000E+00  0.0000E+00
     -2.619  0.0000E+00  0.0000E+00  0.0000E+00  0.0000E+00  0.0000E+00  0.0000E+00  0.0000E+00  0.0000E+00  0.0000E+00
     -2.533  0.0000E+00  0.0000E+00  0.0000E+00  0.0000E+00  0.0000E+00  0.0000E+00  0.0000E+00  0.0000E+00  0.0000E+00
     -2.447  0.0000E+00  0.0000E+00  0.0000E+00  0.0000E+00  0.0000E+00  0.0000E+00  0.0000E+00  0.0000E+00  0.0000E+00
     -2.361  0.0000E+00  0.0000E+00  0.0000E+00  0.0000E+00  0.0000E+00  0.0000E+00  0.0000E+00  0.0000E+00  0.0000E+00
     -2.275  0.0000E+00  0.0000E+00  0.0000E+00  0.0000E+00  0.0000E+00  0.0000E+00  0.0000E+00  0.0000E+00  0.0000E+00
     -2.189  0.0000E+00  0.0000E+00  0.0000E+00  0.0000E+00  0.0000E+00  0.0000E+00  0.0000E+00  0.0000E+00  0.0000E+00
     -2.103  0.0000E+00  0.0000E+00  0.0000E+00  0.0000E+00  0.0000E+00  0.0000E+00  0.0000E+00  0.0000E+00  0.0000E+00
     -2.017  0.0000E+00  0.0000E+00  0.0000E+00  0.0000E+00  0.0000E+00  0.0000E+00  0.0000E+00  0.0000E+00  0.0000E+00
     -1.931  0.0000E+00  0.0000E+00  0.0000E+00  0.0000E+00  0.0000E+00  0.0000E+00  0.0000E+00  0.0000E+00  0.0000E+00
     -1.845  0.3858E-11  0.3696E-27  0.5920E-27  0.2102E-27  0.5552E-27  0.1133E-26  0.3100E-13  0.6904E-27  0.3100E-13
     -1.759  0.2489E-05  0.3400E-12  0.3400E-12  0.5210E-12  0.7125E-15  0.9059E-14  0.2000E-07  0.7128E-15  0.2000E-07
     -1.673  0.5867E-02  0.1885E-06  0.1886E-06  0.2183E-06  0.3967E-09  0.1775E-08  0.4688E-04  0.4018E-09  0.4672E-04
     -1.587  0.1630E+00  0.3780E-03  0.3851E-03  0.3971E-03  0.8782E-06  0.2011E-05  0.1101E-02  0.1132E-05  0.9977E-03
     -1.501  0.6849E+00  0.5214E-02  0.6700E-02  0.5309E-02  0.3134E-04  0.8776E-04  0.3210E-02  0.8492E-04  0.1968E-02
     -1.415  0.8066E+00  0.9383E-02  0.1297E-01  0.7144E-02  0.5285E-03  0.2377E-03  0.2418E-02  0.6591E-03  0.7598E-03
     -1.329  0.7101E+00  0.1903E-01  0.2377E-01  0.1344E-01  0.1317E-02  0.3818E-03  0.5200E-03  0.2161E-02  0.5925E-03
     -1.243  0.1084E+01  0.1296E-01  0.3685E-01  0.1143E-01  0.2432E-02  0.3123E-02  0.9264E-03  0.6810E-02  0.1492E-02
     -1.156  0.1073E+01  0.3546E-01  0.5384E-01  0.3534E-01  0.3584E-02  0.6665E-02  0.1357E-02  0.7009E-02  0.1181E-02
     -1.070  0.3599E+00  0.5795E-02  0.1139E-01  0.5796E-02  0.5547E-03  0.3889E-02  0.4438E-03  0.3888E-02  0.1948E-02
     -0.984  0.5699E+00  0.4822E-02  0.1168E-01  0.5735E-02  0.6836E-03  0.7235E-02  0.8326E-03  0.6367E-02  0.3986E-02
     -0.898  0.1784E+00  0.1665E-03  0.4038E-03  0.5459E-02  0.2363E-04  0.5251E-02  0.6204E-03  0.2200E-03  0.1913E-02
     -0.812  0.3233E-01  0.1094E-03  0.1202E-02  0.7422E-03  0.3773E-04  0.8402E-03  0.7123E-04  0.2386E-03  0.2135E-03
     -0.726  0.2539E+00  0.2098E-02  0.2306E-01  0.2098E-02  0.7236E-03  0.4577E-02  0.1065E-05  0.4576E-02  0.1969E-06
     -0.640  0.9374E-01  0.7935E-03  0.8511E-02  0.7871E-03  0.2693E-03  0.1695E-02  0.4800E-06  0.1687E-02  0.3366E-06
     -0.554  0.1165E+00  0.8277E-02  0.8308E-02  0.5802E-02  0.1117E-02  0.4033E-02  0.4374E-04  0.1122E-02  0.1312E-03
     -0.468  0.4430E+00  0.3157E-01  0.3157E-01  0.2213E-01  0.4257E-02  0.1536E-01  0.1669E-03  0.4257E-02  0.5008E-03
     -0.382  0.3393E-01  0.2418E-02  0.2418E-02  0.1695E-02  0.3261E-03  0.1177E-02  0.1278E-04  0.3261E-03  0.3835E-04
     -0.296  0.1781E-04  0.1269E-05  0.1269E-05  0.8897E-06  0.1712E-06  0.6177E-06  0.6712E-08  0.1712E-06  0.2013E-07
     -0.210  0.3772E-10  0.2453E-11  0.2708E-11  0.1862E-11  0.3330E-12  0.1397E-11  0.1656E-13  0.3811E-12  0.4897E-13
     -0.124  0.4393E-05  0.4167E-07  0.3358E-06  0.1939E-06  0.8229E-08  0.2547E-06  0.4370E-08  0.6379E-07  0.1229E-07
     -0.038  0.1772E-01  0.1681E-03  0.1354E-02  0.7821E-03  0.3320E-04  0.1028E-02  0.1763E-04  0.2573E-03  0.4958E-04
      0.048  0.4262E+00  0.4043E-02  0.3258E-01  0.1881E-01  0.7985E-03  0.2471E-01  0.4240E-03  0.6189E-02  0.1193E-02
      0.134  0.1902E+00  0.1804E-02  0.1453E-01  0.8392E-02  0.3562E-03  0.1103E-01  0.1891E-03  0.2761E-02  0.5320E-03
      0.220  0.9907E-03  0.9398E-05  0.7572E-04  0.4372E-04  0.1856E-05  0.5745E-04  0.9855E-06  0.1439E-04  0.2772E-05
      0.306  0.2357E-07  0.2271E-09  0.1727E-08  0.1092E-08  0.4747E-10  0.1392E-08  0.2495E-10  0.3309E-09  0.7069E-10
      0.393  0.1194E-03  0.2667E-05  0.2667E-05  0.1060E-04  0.1009E-05  0.8817E-05  0.2399E-06  0.1009E-05  0.7197E-06
      0.479  0.5397E-01  0.1893E-02  0.1893E-02  0.4806E-02  0.7161E-03  0.3583E-02  0.8806E-04  0.7161E-03  0.2642E-03
      0.565  0.2467E+00  0.1140E-01  0.1140E-01  0.2203E-01  0.4313E-02  0.1477E-01  0.3211E-03  0.4313E-02  0.9634E-03
      0.651  0.2448E-01  0.1418E-02  0.1418E-02  0.2192E-02  0.5364E-03  0.1298E-02  0.2339E-04  0.5364E-03  0.7017E-04
      0.737  0.1956E-04  0.1376E-05  0.1376E-05  0.1757E-05  0.5202E-06  0.8957E-06  0.1153E-07  0.5202E-06  0.3460E-07
      0.823  0.1156E-09  0.4038E-07  0.2688E-07  0.4038E-07  0.2552E-09  0.4773E-09  0.4729E-08  0.4766E-09  0.1547E-12
      0.909  0.1601E-05  0.5257E-03  0.3522E-03  0.5282E-03  0.3564E-05  0.6182E-05  0.6179E-04  0.6133E-05  0.3850E-07
      0.995  0.1495E-02  0.3998E-01  0.3022E-01  0.4379E-01  0.6680E-03  0.4715E-03  0.5020E-02  0.3971E-03  0.5856E-04
      1.081  0.1591E-01  0.1020E+00  0.1074E+00  0.1436E+00  0.5199E-02  0.1215E-02  0.1563E-01  0.4025E-03  0.6391E-03
      1.167  0.3531E-02  0.1581E-01  0.1930E-01  0.2505E-01  0.1112E-02  0.1895E-03  0.2670E-02  0.8946E-05  0.1420E-03
      1.253  0.1068E-01  0.5634E-03  0.1110E-02  0.3171E-02  0.1085E-04  0.7481E-03  0.2169E-03  0.6425E-03  0.6769E-04
      1.339  0.1835E+00  0.1250E-01  0.2178E-01  0.6384E-01  0.1963E-03  0.1326E-01  0.4438E-02  0.1106E-01  0.1420E-02
      1.425  0.7199E-01  0.6398E-01  0.6719E-01  0.4666E-01  0.3978E-02  0.4601E-02  0.3986E-02  0.3980E-02  0.6009E-03
      1.511  0.7755E-01  0.1224E+00  0.1226E+00  0.1130E+00  0.1149E-01  0.2006E-02  0.1008E-01  0.5742E-02  0.4520E-02
      1.597  0.1023E+00  0.1423E+00  0.1424E+00  0.1868E+00  0.9660E-02  0.5696E-02  0.1309E-01  0.9422E-02  0.8316E-02
      1.683  0.1832E-01  0.1328E+00  0.1421E+00  0.1689E+00  0.9277E-02  0.5200E-02  0.7793E-02  0.2465E-02  0.2232E-02
      1.769  0.1479E-01  0.7445E-01  0.8569E-01  0.6525E-01  0.9047E-02  0.7161E-03  0.3764E-02  0.8417E-03  0.6462E-03
      1.856  0.2826E-03  0.1291E-02  0.1508E-02  0.1272E-02  0.1729E-03  0.1439E-04  0.6919E-04  0.1481E-04  0.1133E-04
      1.942  0.2815E-07  0.1233E-01  0.1233E-01  0.1233E-01  0.4993E-03  0.4992E-03  0.6890E-08  0.4992E-03  0.1128E-08
      2.028  0.1770E-06  0.1990E-01  0.1990E-01  0.1990E-01  0.8057E-03  0.8063E-03  0.1950E-06  0.8063E-03  0.2849E-06