*** 3078 [NscfWorkflow Test]: FINISHED
*** Scheduler output:
module load mvapich2/1.9-intel
module load intel/14.0.5
module load mkl/11.1.4-intel-14.0.5
module load fftw/3.3.3
 running on   16 total cores
 distrk:  each k-point on   16 cores,    1 groups
 distr:  one band on    1 cores,   16 groups
 using from now: INCAR     
 vasp.5.3.3 18Dez12 (build Feb  4 2016 02:40:37) complex                        
  
 POSCAR found type information on POSCAR  Ga As
 POSCAR found :  2 types and       2 ions

 ----------------------------------------------------------------------------- 
|                                                                             |
|           W    W    AA    RRRRR   N    N  II  N    N   GGGG   !!!           |
|           W    W   A  A   R    R  NN   N  II  NN   N  G    G  !!!           |
|           W    W  A    A  R    R  N N  N  II  N N  N  G       !!!           |
|           W WW W  AAAAAA  RRRRR   N  N N  II  N  N N  G  GGG   !            |
|           WW  WW  A    A  R   R   N   NN  II  N   NN  G    G                |
|           W    W  A    A  R    R  N    N  II  N    N   GGGG   !!!           |
|                                                                             |
|      For optimal performance we recommend that you set                      |
|        NPAR = 4 - approx SQRT( number of cores)                             |
|      (number of cores/NPAR must be integer)                                 |
|      This setting will greatly improve the performance of VASP for DFT.     |
|      The default NPAR=number of cores might be grossly inefficient          |
|      on modern multi-core architectures or massively parallel machines.     |
|      Do your own testing.                                                   |
|      Unfortunately you need to use the default for hybrid, GW and RPA       |
|      calculations.                                                          |
|                                                                             |
 ----------------------------------------------------------------------------- 

 LDA part: xc-table for Ceperly-Alder, standard interpolation
 POSCAR, INCAR and KPOINTS ok, starting setup
 WARNING: small aliasing (wrap around) errors must be expected
 FFT: planning ...
 WAVECAR not read
 initial charge from wavefunction
 entering main loop
       N       E                     dE             d eps       ncg     rms          rms(c)
DAV:   1    -0.110935629661E+04   -0.11094E+04   -0.22289E+04  2192   0.784E+03
DAV:   2    -0.138165240725E+04   -0.27230E+03   -0.26492E+03  2144   0.775E+02
DAV:   3    -0.139223015766E+04   -0.10578E+02   -0.10508E+02  2576   0.708E+01
DAV:   4    -0.139253805548E+04   -0.30790E+00   -0.30786E+00  2832   0.146E+01
DAV:   5    -0.139254356278E+04   -0.55073E-02   -0.55071E-02  2688   0.172E+00    0.950E+02
DAV:   6    -0.391334609995E+03    0.10012E+04   -0.48844E+02  1936   0.104E+02    0.217E+02
DAV:   7    -0.136484942972E+03    0.25485E+03   -0.17584E+02  2592   0.856E+01    0.337E+02
DAV:   8    -0.461306128918E+02    0.90354E+02   -0.69342E+01  2512   0.598E+01    0.187E+02
DAV:   9    -0.107193116986E+02    0.35411E+02   -0.84882E+01  2592   0.849E+01    0.412E+01
DAV:  10    -0.978434663593E+01    0.93497E+00   -0.67667E+00  2272   0.277E+01    0.826E+00
DAV:  11    -0.962842614577E+01    0.15592E+00   -0.58492E-01  2288   0.507E+00    0.211E+00
DAV:  12    -0.963246450562E+01   -0.40384E-02   -0.18928E-02  2272   0.641E-01    0.838E-01
DAV:  13    -0.963216761680E+01    0.29689E-03   -0.46118E-03  2464   0.964E-01    0.707E-01
DAV:  14    -0.963198458584E+01    0.18303E-03   -0.10459E-03  2304   0.441E-01    0.442E-02
DAV:  15    -0.963197744051E+01    0.71453E-05   -0.38065E-05  1584   0.619E-02
   1 F= -.96319774E+01 E0= -.96321899E+01  d E =0.637250E-03
 writing wavefunctions

*** Scheduler errors:
######################################################################################################################

If using more than 64 MPI processes with python set MV2_ON_DEMAND_THRESHOLD to number of MPI processes you wish to use

######################################################################################################################
[0] Failed to dealloc pd (Device or resource busy)
[8] Failed to dealloc pd (Device or resource busy)

*** 5 LOG MESSAGES:
+-> WARNING at 2016-06-08 16:01:10.876680+00:00
|   charge_density node given but "icharg" key in settings not set to either 1 o 11. charge_density node not used --> .CHGCAR not written
+-> WARNING at 2016-06-08 16:07:12.748349+00:00
|   wannier90.win not found in retrieved
+-> WARNING at 2016-06-08 16:07:12.762292+00:00
|   wannier90.mmn not found in retrieved
+-> WARNING at 2016-06-08 16:07:12.763541+00:00
|   wannier90.amn not found in retrieved
+-> WARNING at 2016-06-08 16:07:12.764529+00:00
|   wannier90.eig not found in retrieved
