 vasp.5.4.4.18Apr17-6-g9f103f2a35 (build Apr  9 2020 10:35:27) complex           
 executed on             LinuxGNU date 2021.04.04  17:45:34
 running on    4 total cores
 distrk:  each k-point on    4 cores,    1 groups
 distr:  one band on NCORES_PER_BAND=   4 cores,    1 groups


--------------------------------------------------------------------------------------------------------


 INCAR:
 POTCAR:    PAW_PBE Si 05Jan2001                  
 POTCAR:    PAW_PBE Si 05Jan2001                  
   VRHFIN =Si: s2p2                                                             
   LEXCH  = PE                                                                  
   EATOM  =   103.0669 eV,    7.5752 Ry                                         
                                                                                
   TITEL  = PAW_PBE Si 05Jan2001                                                
   LULTRA =        F    use ultrasoft PP ?                                      
   IUNSCR =        1    unscreen: 0-lin 1-nonlin 2-no                           
   RPACOR =    1.500    partial core radius                                     
   POMASS =   28.085; ZVAL   =    4.000    mass and valenz                      
   RCORE  =    1.900    outmost cutoff radius                                   
   RWIGS  =    2.480; RWIGS  =    1.312    wigner-seitz radius (au A)           
   ENMAX  =  245.345; ENMIN  =  184.009 eV                                      
   ICORE  =        2    local potential                                         
   LCOR   =        T    correct aug charges                                     
   LPAW   =        T    paw PP                                                  
   EAUG   =  322.069                                                            
   DEXC   =    0.000                                                            
   RMAX   =    1.950    core radius for proj-oper                               
   RAUG   =    1.300    factor for augmentation sphere                          
   RDEP   =    1.993    radius for radial grids                                 
   RDEPT  =    1.837    core radius for aug-charge                              
                                                                                
   Atomic configuration                                                         
    6 entries                                                                   
     n  l   j            E        occ.                                          
     1  0  0.50     -1785.8828   2.0000                                         
     2  0  0.50      -139.4969   2.0000                                         
     2  1  1.50       -95.5546   6.0000                                         
     3  0  0.50       -10.8127   2.0000                                         
     3  1  0.50        -4.0811   2.0000                                         
     3  2  1.50        -4.0817   0.0000                                         
   Description                                                                  
     l       E           TYP  RCUT    TYP  RCUT                                 
     0    -10.8127223     23  1.900                                             
     0     -7.6451159     23  1.900                                             
     1     -4.0811372     23  1.900                                             
     1      2.4879257     23  1.900                                             
     2     -4.0817478      7  1.900                                             
  local pseudopotential read in
  partial core-charges read in
  partial kinetic energy density read in
  atomic valenz-charges read in
  non local Contribution for L=           0  read in
    real space projection operators read in
  non local Contribution for L=           0  read in
    real space projection operators read in
  non local Contribution for L=           1  read in
    real space projection operators read in
  non local Contribution for L=           1  read in
    real space projection operators read in
    PAW grid and wavefunctions read in

   number of l-projection  operators is LMAX  =           4
   number of lm-projection operators is LMMAX =           8


 ----------------------------------------------------------------------------- 
|                                                                             |
|  ADVICE TO THIS USER RUNNING 'VASP/VAMP'   (HEAR YOUR MASTER'S VOICE ...):  |
|                                                                             |
|      You have a (more or less) 'small supercell' and for smaller cells      |
|      it is recommended  to use the reciprocal-space projection scheme!      |
|      The real space optimization is not  efficient for small cells and it   |
|      is also less accurate ...                                              |
|      Therefore set LREAL=.FALSE. in the  INCAR file                         |
|                                                                             |
 ----------------------------------------------------------------------------- 

 Optimization of the real space projectors (new method)

 maximal supplied QI-value         = 19.84
 optimisation between [QCUT,QGAM] = [  8.73, 17.66] = [ 21.34, 87.33] Ry 
 Optimized for a Real-space Cutoff    1.46 Angstroem

   l    n(q)    QCUT    max X(q) W(low)/X(q) W(high)/X(q)  e(spline) 
   0      8     8.731   159.560    0.25E-03    0.77E-04    0.13E-06
   0      8     8.731   115.863    0.24E-03    0.77E-04    0.13E-06
   1      7     8.731    88.339    0.12E-03    0.40E-03    0.15E-06
   1      7     8.731    48.592    0.12E-03    0.39E-03    0.15E-06
  PAW_PBE Si 05Jan2001                  :
 energy of atom  1       EATOM= -103.0669
 kinetic energy error for atom=    0.0021 (will be added to EATOM!!)


 POSCAR: generated by phonopy                    
  positions in direct lattice
  No initial velocities read in
 exchange correlation table for  LEXCH =        8
   RHO(1)=    0.500       N(1)  =     2000
   RHO(2)=  100.500       N(2)  =     4000



--------------------------------------------------------------------------------------------------------


 ion  position               nearest neighbor table
   1  0.780  0.770  0.730-   2 1.78   2 2.29   2 2.74   2 3.14
   2  0.600  0.300  0.400-   1 1.78   1 2.29   1 2.74   1 3.14

  LATTYP: Found a face centered cubic cell.
 ALAT       =     5.4687280000
  
  Lattice vectors:
  
 A1 = (   0.0000000000,   2.7343640000,   2.7343640000)
 A2 = (   2.7343640000,   0.0000000000,   2.7343640000)
 A3 = (   2.7343640000,   2.7343640000,   0.0000000000)


Analysis of symmetry for initial positions (statically):
=====================================================================
 Subroutine PRICEL returns:
 Original cell was already a primitive cell.
 

 Routine SETGRP: Setting up the symmetry group for a 
 face centered cubic supercell.


 Subroutine GETGRP returns: Found  2 space group operations
 (whereof  1 operations were pure point group operations)
 out of a pool of 48 trial point group operations.


The static configuration has the point symmetry C_1 .
 The point group associated with its full space group is S_2 .


Analysis of symmetry for dynamics (positions and initial velocities):
=====================================================================
 Subroutine PRICEL returns:
 Original cell was already a primitive cell.
 

 Routine SETGRP: Setting up the symmetry group for a 
 face centered cubic supercell.


 Subroutine GETGRP returns: Found  2 space group operations
 (whereof  1 operations were pure point group operations)
 out of a pool of 48 trial point group operations.


The dynamic configuration has the point symmetry C_1 .
 The point group associated with its full space group is S_2 .


 Subroutine INISYM returns: Found  2 space group operations
 (whereof  1 operations are pure point group operations),
 and found     1 'primitive' translations



 KPOINTS: pymatgen v2021.2.8.1 with grid density =

Automatic generation of k-mesh.
Space group operators:
 irot       det(A)        alpha          n_x          n_y          n_z        tau_x        tau_y        tau_z
    1     1.000000     0.000000     1.000000     0.000000     0.000000     0.000000     0.000000     0.000000
    2    -1.000000     0.000000     1.000000     0.000000     0.000000     0.380000     0.070000     0.130000
 
 Subroutine IBZKPT returns following result:
 ===========================================
 
 Found    128 irreducible k-points:
 
 Following reciprocal coordinates:
            Coordinates               Weight
  0.125000  0.125000  0.125000     24.000000
  0.125000  0.000000  0.000000     24.000000
  0.000000  0.000000 -0.125000     24.000000
  0.000000  0.125000  0.000000     24.000000
  0.375000  0.125000  0.125000     24.000000
  0.125000  0.375000  0.125000     24.000000
  0.125000  0.125000  0.375000     24.000000
  0.125000  0.000000 -0.250000     24.000000
  0.375000  0.250000  0.250000     24.000000
  0.125000 -0.250000  0.000000     24.000000
  0.000000  0.250000 -0.125000     24.000000
  0.250000  0.000000 -0.125000     24.000000
 -0.250000 -0.250000 -0.375000     24.000000
  0.250000  0.375000  0.250000     24.000000
  0.000000  0.125000 -0.250000     24.000000
 -0.250000  0.125000  0.000000     24.000000
 -0.375000  0.125000  0.125000     24.000000
  0.125000 -0.375000  0.125000     24.000000
  0.125000  0.125000 -0.375000     24.000000
  0.125000  0.000000  0.500000     24.000000
 -0.375000  0.500000  0.500000     24.000000
  0.125000  0.500000  0.000000     24.000000
  0.000000  0.500000 -0.125000     24.000000
  0.500000  0.000000 -0.125000     24.000000
  0.500000  0.500000  0.375000     24.000000
  0.500000 -0.375000  0.500000     24.000000
  0.000000  0.125000  0.500000     24.000000
  0.500000  0.125000  0.000000     24.000000
 -0.125000  0.125000  0.125000     24.000000
  0.125000 -0.125000  0.125000     24.000000
  0.125000  0.125000 -0.125000     24.000000
  0.125000  0.000000  0.250000     24.000000
 -0.125000 -0.250000 -0.250000     24.000000
  0.125000  0.250000  0.000000     24.000000
  0.000000 -0.250000 -0.125000     24.000000
 -0.250000  0.000000 -0.125000     24.000000
  0.250000  0.250000  0.125000     24.000000
 -0.250000 -0.125000 -0.250000     24.000000
  0.000000  0.125000  0.250000     24.000000
  0.250000  0.125000  0.000000     24.000000
  0.375000  0.375000  0.125000     24.000000
  0.125000  0.375000  0.375000     24.000000
  0.375000  0.125000  0.375000     24.000000
  0.375000  0.250000  0.000000     24.000000
  0.375000  0.000000  0.250000     24.000000
  0.125000 -0.250000 -0.250000     24.000000
  0.250000  0.250000 -0.125000     24.000000
  0.000000 -0.250000 -0.375000     24.000000
 -0.250000  0.000000 -0.375000     24.000000
  0.250000  0.375000  0.000000     24.000000
 -0.250000  0.125000 -0.250000     24.000000
  0.000000  0.375000  0.250000     24.000000
 -0.375000  0.375000  0.125000     24.000000
  0.125000 -0.375000  0.375000     24.000000
  0.375000  0.125000 -0.375000     24.000000
  0.375000  0.250000 -0.250000     24.000000
 -0.375000  0.250000  0.500000     24.000000
  0.125000  0.500000 -0.250000     24.000000
  0.250000  0.500000 -0.125000     24.000000
  0.250000 -0.250000 -0.375000     24.000000
  0.500000 -0.250000  0.375000     24.000000
  0.500000 -0.375000  0.250000     24.000000
 -0.250000  0.125000  0.500000     24.000000
 -0.250000  0.375000  0.250000     24.000000
 -0.125000  0.250000  0.500000     24.000000
 -0.375000  0.250000 -0.250000     24.000000
  0.375000  0.500000 -0.250000     24.000000
  0.250000  0.500000 -0.375000     24.000000
  0.500000 -0.250000  0.125000     24.000000
  0.250000 -0.250000  0.375000     24.000000
  0.500000 -0.125000  0.250000     24.000000
 -0.250000 -0.375000  0.250000     24.000000
 -0.250000  0.375000  0.500000     24.000000
  0.375000 -0.125000 -0.375000     24.000000
 -0.375000  0.375000 -0.125000     24.000000
 -0.125000 -0.375000  0.375000     24.000000
 -0.125000  0.375000  0.125000     24.000000
  0.125000 -0.125000  0.375000     24.000000
  0.375000  0.125000 -0.125000     24.000000
  0.375000  0.250000  0.500000     24.000000
 -0.125000  0.500000 -0.250000     24.000000
  0.125000  0.250000 -0.250000     24.000000
  0.250000 -0.250000 -0.125000     24.000000
  0.500000 -0.250000 -0.375000     24.000000
  0.250000  0.500000  0.125000     24.000000
 -0.250000 -0.125000  0.500000     24.000000
 -0.250000  0.125000  0.250000     24.000000
  0.500000  0.375000  0.250000     24.000000
 -0.125000  0.250000 -0.250000     24.000000
 -0.375000  0.500000 -0.250000     24.000000
  0.125000  0.250000  0.500000     24.000000
  0.500000 -0.250000 -0.125000     24.000000
  0.250000 -0.250000  0.125000     24.000000
  0.250000  0.500000  0.375000     24.000000
 -0.250000 -0.125000  0.250000     24.000000
 -0.250000 -0.375000  0.500000     24.000000
  0.500000  0.125000  0.250000     24.000000
  0.125000 -0.125000 -0.375000     24.000000
 -0.375000  0.125000 -0.125000     24.000000
 -0.125000 -0.375000  0.125000     24.000000
 -0.375000 -0.375000  0.125000     24.000000
  0.125000 -0.375000 -0.375000     24.000000
 -0.375000  0.125000 -0.375000     24.000000
 -0.375000  0.500000  0.000000     24.000000
 -0.375000  0.000000  0.500000     24.000000
  0.125000  0.500000  0.500000     24.000000
  0.500000  0.500000 -0.125000     24.000000
  0.000000  0.500000  0.375000     24.000000
  0.500000  0.000000  0.375000     24.000000
  0.500000 -0.375000  0.000000     24.000000
  0.500000  0.125000  0.500000     24.000000
  0.000000 -0.375000  0.500000     24.000000
  0.375000  0.375000  0.375000     24.000000
  0.375000  0.000000  0.000000     24.000000
  0.000000  0.000000 -0.375000     24.000000
  0.000000  0.375000  0.000000     24.000000
 -0.375000  0.375000  0.375000     24.000000
  0.375000 -0.375000  0.375000     24.000000
  0.375000  0.375000 -0.375000     24.000000
  0.375000  0.000000 -0.250000     24.000000
 -0.375000  0.250000  0.250000     24.000000
  0.375000 -0.250000  0.000000     24.000000
  0.000000  0.250000 -0.375000     24.000000
  0.250000  0.000000 -0.375000     24.000000
 -0.250000 -0.250000  0.375000     24.000000
  0.250000 -0.375000  0.250000     24.000000
  0.000000  0.375000 -0.250000     24.000000
 -0.250000  0.375000  0.000000     24.000000
 
 Following cartesian coordinates:
            Coordinates               Weight
  0.022857  0.022857  0.022857     24.000000
 -0.022857  0.022857  0.022857     24.000000
 -0.022857 -0.022857  0.022857     24.000000
  0.022857 -0.022857  0.022857     24.000000
 -0.022857  0.068572  0.068572     24.000000
  0.068572 -0.022857  0.068572     24.000000
  0.068572  0.068572 -0.022857     24.000000
 -0.068572 -0.022857  0.068572     24.000000
  0.022857  0.068572  0.068572     24.000000
 -0.068572  0.068572 -0.022857     24.000000
  0.022857 -0.068572  0.068572     24.000000
 -0.068572  0.022857  0.068572     24.000000
 -0.068572 -0.068572 -0.022857     24.000000
  0.068572  0.022857  0.068572     24.000000
 -0.022857 -0.068572  0.068572     24.000000
  0.068572 -0.068572 -0.022857     24.000000
  0.114286 -0.068572 -0.068572     24.000000
 -0.068572  0.114286 -0.068572     24.000000
 -0.068572 -0.068572  0.114286     24.000000
  0.068572  0.114286 -0.068572     24.000000
  0.251430 -0.068572 -0.068572     24.000000
  0.068572 -0.068572  0.114286     24.000000
  0.068572 -0.114286  0.114286     24.000000
 -0.114286  0.068572  0.114286     24.000000
  0.068572  0.068572  0.114286     24.000000
 -0.068572  0.251430 -0.068572     24.000000
  0.114286  0.068572 -0.068572     24.000000
 -0.068572  0.068572  0.114286     24.000000
  0.068572 -0.022857 -0.022857     24.000000
 -0.022857  0.068572 -0.022857     24.000000
 -0.022857 -0.022857  0.068572     24.000000
  0.022857  0.068572 -0.022857     24.000000
 -0.068572 -0.022857 -0.022857     24.000000
  0.022857 -0.022857  0.068572     24.000000
 -0.068572  0.022857 -0.022857     24.000000
  0.022857 -0.068572 -0.022857     24.000000
  0.022857  0.022857  0.068572     24.000000
 -0.022857 -0.068572 -0.022857     24.000000
  0.068572  0.022857 -0.022857     24.000000
 -0.022857  0.022857  0.068572     24.000000
  0.022857  0.022857  0.114286     24.000000
  0.114286  0.022857  0.022857     24.000000
  0.022857  0.114286  0.022857     24.000000
 -0.022857  0.022857  0.114286     24.000000
 -0.022857  0.114286  0.022857     24.000000
 -0.114286  0.022857  0.022857     24.000000
 -0.022857 -0.022857  0.114286     24.000000
 -0.114286 -0.022857  0.022857     24.000000
 -0.022857 -0.114286  0.022857     24.000000
  0.022857 -0.022857  0.114286     24.000000
  0.022857 -0.114286  0.022857     24.000000
  0.114286 -0.022857  0.022857     24.000000
  0.160001 -0.114286 -0.022857     24.000000
 -0.022857  0.160001 -0.114286     24.000000
 -0.114286 -0.022857  0.160001     24.000000
 -0.068572 -0.022857  0.160001     24.000000
  0.205715 -0.022857 -0.114286     24.000000
  0.022857 -0.114286  0.160001     24.000000
  0.022857 -0.068572  0.160001     24.000000
 -0.160001  0.022857  0.068572     24.000000
 -0.068572  0.205715 -0.022857     24.000000
 -0.114286  0.205715 -0.022857     24.000000
  0.160001  0.022857 -0.114286     24.000000
  0.160001 -0.068572 -0.022857     24.000000
  0.160001  0.022857 -0.068572     24.000000
  0.068572 -0.160001  0.022857     24.000000
 -0.022857 -0.068572  0.205715     24.000000
 -0.022857 -0.114286  0.205715     24.000000
 -0.114286  0.160001  0.022857     24.000000
 -0.022857  0.160001 -0.068572     24.000000
 -0.068572  0.160001  0.022857     24.000000
  0.022857  0.068572 -0.160001     24.000000
  0.205715 -0.022857 -0.068572     24.000000
 -0.160001  0.022857  0.114286     24.000000
  0.114286 -0.160001  0.022857     24.000000
  0.022857  0.114286 -0.160001     24.000000
  0.114286 -0.068572  0.022857     24.000000
  0.022857  0.114286 -0.068572     24.000000
 -0.068572  0.022857  0.114286     24.000000
  0.068572  0.114286  0.022857     24.000000
  0.068572 -0.160001  0.114286     24.000000
 -0.022857 -0.068572  0.114286     24.000000
 -0.114286  0.068572  0.022857     24.000000
 -0.205715  0.068572  0.114286     24.000000
  0.068572 -0.022857  0.114286     24.000000
  0.114286  0.068572 -0.160001     24.000000
  0.114286 -0.022857 -0.068572     24.000000
  0.022857  0.068572  0.114286     24.000000
  0.022857 -0.114286  0.068572     24.000000
  0.114286 -0.205715  0.068572     24.000000
  0.114286  0.068572 -0.022857     24.000000
 -0.160001  0.114286  0.068572     24.000000
 -0.068572  0.114286 -0.022857     24.000000
  0.114286  0.022857  0.068572     24.000000
  0.068572  0.022857 -0.114286     24.000000
  0.068572  0.114286 -0.205715     24.000000
 -0.022857  0.114286  0.068572     24.000000
 -0.114286 -0.022857  0.068572     24.000000
  0.068572 -0.114286 -0.022857     24.000000
 -0.022857  0.068572 -0.114286     24.000000
  0.022857  0.022857 -0.160001     24.000000
 -0.160001  0.022857  0.022857     24.000000
  0.022857 -0.160001  0.022857     24.000000
  0.160001 -0.160001  0.022857     24.000000
  0.160001  0.022857 -0.160001     24.000000
  0.160001  0.022857  0.022857     24.000000
 -0.022857 -0.022857  0.205715     24.000000
  0.160001 -0.022857  0.022857     24.000000
 -0.022857  0.160001  0.022857     24.000000
 -0.160001  0.160001  0.022857     24.000000
  0.022857  0.160001  0.022857     24.000000
  0.022857  0.160001 -0.160001     24.000000
  0.068572  0.068572  0.068572     24.000000
 -0.068572  0.068572  0.068572     24.000000
 -0.068572 -0.068572  0.068572     24.000000
  0.068572 -0.068572  0.068572     24.000000
  0.205715 -0.068572 -0.068572     24.000000
 -0.068572  0.205715 -0.068572     24.000000
 -0.068572 -0.068572  0.205715     24.000000
 -0.114286  0.022857  0.114286     24.000000
  0.160001 -0.068572 -0.068572     24.000000
 -0.114286  0.114286  0.022857     24.000000
 -0.022857 -0.114286  0.114286     24.000000
 -0.114286 -0.022857  0.114286     24.000000
  0.068572  0.068572 -0.160001     24.000000
 -0.068572  0.160001 -0.068572     24.000000
  0.022857 -0.114286  0.114286     24.000000
  0.114286 -0.114286  0.022857     24.000000
 


--------------------------------------------------------------------------------------------------------




 Dimension of arrays:
   k-points           NKPTS =    128   k-points in BZ     NKDIM =    128   number of bands    NBANDS=      8
   number of dos      NEDOS =    301   number of ions     NIONS =      2
   non local maximal  LDIM  =      4   non local SUM 2l+1 LMDIM =      8
   total plane-waves  NPLWV =  13824
   max r-space proj   IRMAX =   4446   max aug-charges    IRDMAX=  11502
   dimension x,y,z NGX =    24 NGY =   24 NGZ =   24
   dimension x,y,z NGXF=    48 NGYF=   48 NGZF=   48
   support grid    NGXF=    48 NGYF=   48 NGZF=   48
   ions per type =               2
   NGX,Y,Z   is equivalent  to a cutoff of  10.32, 10.32, 10.32 a.u.
   NGXF,Y,Z  is equivalent  to a cutoff of  20.64, 20.64, 20.64 a.u.

 SYSTEM =  unknown system                          
 POSCAR =  generated by phonopy                    

 Startparameter for this run:
   NWRITE =      2    write-flag & timer
   PREC   = accura    normal or accurate (medium, high low for compatibility)
   ISTART =      0    job   : 0-new  1-cont  2-samecut
   ICHARG =      2    charge: 1-file 2-atom 10-const
   ISPIN  =      1    spin polarized calculation?
   LNONCOLLINEAR =      F non collinear calculations
   LSORBIT =      F    spin-orbit coupling
   INIWAV =      1    electr: 0-lowe 1-rand  2-diag
   LASPH  =      T    aspherical Exc in radial PAW
   METAGGA=      F    non-selfconsistent MetaGGA calc.

 Electronic Relaxation 1
   ENCUT  =  300.0 eV  22.05 Ry    4.70 a.u.   5.46  5.46  5.46*2*pi/ulx,y,z
   ENINI  =  300.0     initial cutoff
   ENAUG  =  322.1 eV  augmentation charge cutoff
   NELM   =     10;   NELMIN=  2; NELMDL=  0     # of ELM steps 
   EDIFF  = 0.1E-05   stopping-criterion for ELM
   LREAL  =      T    real-space projection
   NLSPLINE    = F    spline interpolate recip. space projectors
   LCOMPAT=      F    compatible to vasp.4.4
   GGA_COMPAT  = T    GGA compatible to vasp.4.4-vasp.4.6
   LMAXPAW     = -100 max onsite density
   LMAXMIX     =    2 max onsite mixed and CHGCAR
   VOSKOWN=      0    Vosko Wilk Nusair interpolation
   ROPT   =   -0.00025
 Ionic relaxation
   EDIFFG = 0.5E-01   stopping-criterion for IOM
   NSW    =      5    number of steps for IOM
   NBLOCK =      1;   KBLOCK =      5    inner block; outer block 
   IBRION =      1    ionic relax: 0-MD 1-quasi-New 2-CG
   NFREE  =      0    steps in history (QN), initial steepest desc. (CG)
   ISIF   =      2    stress and relaxation
   IWAVPR =     11    prediction:  0-non 1-charg 2-wave 3-comb
   ISYM   =      2    0-nonsym 1-usesym 2-fastsym
   LCORR  =      T    Harris-Foulkes like correction to forces

   POTIM  = 0.5000    time-step for ionic-motion
   TEIN   =    0.0    initial temperature
   TEBEG  =    0.0;   TEEND  =   0.0 temperature during run
   SMASS  =  -3.00    Nose mass-parameter (am)
   estimated Nose-frequenzy (Omega)   =  0.10E-29 period in steps =****** mass=  -0.342E-27a.u.
   SCALEE = 1.0000    scale energy and forces
   NPACO  =    256;   APACO  = 16.0  distance and # of slots for P.C.
   PSTRESS=    0.0 pullay stress

  Mass of Ions in am
   POMASS =  28.09
  Ionic Valenz
   ZVAL   =   4.00
  Atomic Wigner-Seitz radii
   RWIGS  =  -1.00
  virtual crystal weights 
   VCA    =   1.00
   NELECT =       8.0000    total number of electrons
   NUPDOWN=      -1.0000    fix difference up-down

 DOS related values:
   EMIN   =  10.00;   EMAX   =-10.00  energy-range for DOS
   EFERMI =   0.00
   ISMEAR =     0;   SIGMA  =   0.05  broadening in eV -4-tet -1-fermi 0-gaus

 Electronic relaxation 2 (details)
   IALGO  =     68    algorithm
   LDIAG  =      T    sub-space diagonalisation (order eigenvalues)
   LSUBROT=      F    optimize rotation matrix (better conditioning)
   TURBO    =      0    0=normal 1=particle mesh
   IRESTART =      0    0=no restart 2=restart with 2 vectors
   NREBOOT  =      0    no. of reboots
   NMIN     =      0    reboot dimension
   EREF     =   0.00    reference energy to select bands
   IMIX   =      4    mixing-type and parameters
     AMIX     =   0.40;   BMIX     =  1.00
     AMIX_MAG =   1.60;   BMIX_MAG =  1.00
     AMIN     =   0.10
     WC   =   100.;   INIMIX=   1;  MIXPRE=   1;  MAXMIX= -45

 Intra band minimization:
   WEIMIN = 0.0010     energy-eigenvalue tresh-hold
   EBREAK =  0.31E-07  absolut break condition
   DEPER  =   0.30     relativ break condition  

   TIME   =   0.40     timestep for ELM

  volume/ion in A,a.u.               =      20.44       137.96
  Fermi-wavevector in a.u.,A,eV,Ry     =   0.950397  1.795990 12.289529  0.903255
  Thomas-Fermi vector in A             =   2.078770

 Write flags
   LWAVE        =      F    write WAVECAR
   LDOWNSAMPLE  =      F    k-point downsampling of WAVECAR
   LCHARG       =      T    write CHGCAR
   LVTOT        =      F    write LOCPOT, total local potential
   LVHAR        =      F    write LOCPOT, Hartree potential only
   LELF         =      F    write electronic localiz. function (ELF)
   LORBIT       =      0    0 simple, 1 ext, 2 COOP (PROOUT), +10 PAW based schemes


 Dipole corrections
   LMONO  =      F    monopole corrections only (constant potential shift)
   LDIPOL =      F    correct potential (dipole corrections)
   IDIPOL =      0    1-x, 2-y, 3-z, 4-all directions 
   EPSILON=  1.0000000 bulk dielectric constant

 Exchange correlation treatment:
   GGA     =    --    GGA type
   LEXCH   =     8    internal setting for exchange type
   VOSKOWN=      0    Vosko Wilk Nusair interpolation
   LHFCALC =     F    Hartree Fock is set to
   LHFONE  =     F    Hartree Fock one center treatment
   AEXX    =    0.0000 exact exchange contribution

 Linear response parameters
   LEPSILON=     F    determine dielectric tensor
   LRPA    =     F    only Hartree local field effects (RPA)
   LNABLA  =     F    use nabla operator in PAW spheres
   LVEL    =     F    velocity operator in full k-point grid
   LINTERFAST=   F  fast interpolation
   KINTER  =     0    interpolate to denser k-point grid
   CSHIFT  =0.1000    complex shift for real part using Kramers Kronig
   OMEGAMAX=  -1.0    maximum frequency
   DEG_THRESHOLD= 0.2000000E-02 threshold for treating states as degnerate
   RTIME   =   -0.100 relaxation time in fs
  (WPLASMAI=    0.000 imaginary part of plasma frequency in eV, 0.658/RTIME)
   DFIELD  = 0.0000000 0.0000000 0.0000000 field for delta impulse in time

 Orbital magnetization related:
   ORBITALMAG=     F  switch on orbital magnetization
   LCHIMAG   =     F  perturbation theory with respect to B field
   DQ        =  0.001000  dq finite difference perturbation B field
   LLRAUG    =     F  two centre corrections for induced B field



--------------------------------------------------------------------------------------------------------


 quasi-Newton-method for relaxation of ions
 charge density and potential will be updated during run
 non-spin polarized calculation
 RMM-DIIS sequential band-by-band and
  variant of blocked Davidson during initial phase
 perform sub-space diagonalisation
    before iterative eigenvector-optimisation
 modified Broyden-mixing scheme, WC =      100.0
 initial mixing is a Kerker type mixing with AMIX =  0.4000 and BMIX =      1.0000
 Hartree-type preconditioning will be used
 using additional bands            4
 real space projection scheme for non local part
 use partial core corrections
 calculate Harris-corrections to forces   (improved forces if not selfconsistent)
 use gradient corrections 
 use of overlap-Matrix (Vanderbilt PP)
 Gauss-broadening in eV      SIGMA  =   0.05


--------------------------------------------------------------------------------------------------------


  energy-cutoff  :      300.00
  volume of cell :       40.89
      direct lattice vectors                 reciprocal lattice vectors
     0.000000000  2.734364000  2.734364000    -0.182857878  0.182857878  0.182857878
     2.734364000  0.000000000  2.734364000     0.182857878 -0.182857878  0.182857878
     2.734364000  2.734364000  0.000000000     0.182857878  0.182857878 -0.182857878

  length of vectors
     3.866974653  3.866974653  3.866974653     0.316719136  0.316719136  0.316719136



 k-points in units of 2pi/SCALE and weight: pymatgen v2021.2.8.1 with grid density =
   0.02285723  0.02285723  0.02285723       0.008
  -0.02285723  0.02285723  0.02285723       0.008
  -0.02285723 -0.02285723  0.02285723       0.008
   0.02285723 -0.02285723  0.02285723       0.008
  -0.02285723  0.06857170  0.06857170       0.008
   0.06857170 -0.02285723  0.06857170       0.008
   0.06857170  0.06857170 -0.02285723       0.008
  -0.06857170 -0.02285723  0.06857170       0.008
   0.02285723  0.06857170  0.06857170       0.008
  -0.06857170  0.06857170 -0.02285723       0.008
   0.02285723 -0.06857170  0.06857170       0.008
  -0.06857170  0.02285723  0.06857170       0.008
  -0.06857170 -0.06857170 -0.02285723       0.008
   0.06857170  0.02285723  0.06857170       0.008
  -0.02285723 -0.06857170  0.06857170       0.008
   0.06857170 -0.06857170 -0.02285723       0.008
   0.11428617 -0.06857170 -0.06857170       0.008
  -0.06857170  0.11428617 -0.06857170       0.008
  -0.06857170 -0.06857170  0.11428617       0.008
   0.06857170  0.11428617 -0.06857170       0.008
   0.25142958 -0.06857170 -0.06857170       0.008
   0.06857170 -0.06857170  0.11428617       0.008
   0.06857170 -0.11428617  0.11428617       0.008
  -0.11428617  0.06857170  0.11428617       0.008
   0.06857170  0.06857170  0.11428617       0.008
  -0.06857170  0.25142958 -0.06857170       0.008
   0.11428617  0.06857170 -0.06857170       0.008
  -0.06857170  0.06857170  0.11428617       0.008
   0.06857170 -0.02285723 -0.02285723       0.008
  -0.02285723  0.06857170 -0.02285723       0.008
  -0.02285723 -0.02285723  0.06857170       0.008
   0.02285723  0.06857170 -0.02285723       0.008
  -0.06857170 -0.02285723 -0.02285723       0.008
   0.02285723 -0.02285723  0.06857170       0.008
  -0.06857170  0.02285723 -0.02285723       0.008
   0.02285723 -0.06857170 -0.02285723       0.008
   0.02285723  0.02285723  0.06857170       0.008
  -0.02285723 -0.06857170 -0.02285723       0.008
   0.06857170  0.02285723 -0.02285723       0.008
  -0.02285723  0.02285723  0.06857170       0.008
   0.02285723  0.02285723  0.11428617       0.008
   0.11428617  0.02285723  0.02285723       0.008
   0.02285723  0.11428617  0.02285723       0.008
  -0.02285723  0.02285723  0.11428617       0.008
  -0.02285723  0.11428617  0.02285723       0.008
  -0.11428617  0.02285723  0.02285723       0.008
  -0.02285723 -0.02285723  0.11428617       0.008
  -0.11428617 -0.02285723  0.02285723       0.008
  -0.02285723 -0.11428617  0.02285723       0.008
   0.02285723 -0.02285723  0.11428617       0.008
   0.02285723 -0.11428617  0.02285723       0.008
   0.11428617 -0.02285723  0.02285723       0.008
   0.16000064 -0.11428617 -0.02285723       0.008
  -0.02285723  0.16000064 -0.11428617       0.008
  -0.11428617 -0.02285723  0.16000064       0.008
  -0.06857170 -0.02285723  0.16000064       0.008
   0.20571511 -0.02285723 -0.11428617       0.008
   0.02285723 -0.11428617  0.16000064       0.008
   0.02285723 -0.06857170  0.16000064       0.008
  -0.16000064  0.02285723  0.06857170       0.008
  -0.06857170  0.20571511 -0.02285723       0.008
  -0.11428617  0.20571511 -0.02285723       0.008
   0.16000064  0.02285723 -0.11428617       0.008
   0.16000064 -0.06857170 -0.02285723       0.008
   0.16000064  0.02285723 -0.06857170       0.008
   0.06857170 -0.16000064  0.02285723       0.008
  -0.02285723 -0.06857170  0.20571511       0.008
  -0.02285723 -0.11428617  0.20571511       0.008
  -0.11428617  0.16000064  0.02285723       0.008
  -0.02285723  0.16000064 -0.06857170       0.008
  -0.06857170  0.16000064  0.02285723       0.008
   0.02285723  0.06857170 -0.16000064       0.008
   0.20571511 -0.02285723 -0.06857170       0.008
  -0.16000064  0.02285723  0.11428617       0.008
   0.11428617 -0.16000064  0.02285723       0.008
   0.02285723  0.11428617 -0.16000064       0.008
   0.11428617 -0.06857170  0.02285723       0.008
   0.02285723  0.11428617 -0.06857170       0.008
  -0.06857170  0.02285723  0.11428617       0.008
   0.06857170  0.11428617  0.02285723       0.008
   0.06857170 -0.16000064  0.11428617       0.008
  -0.02285723 -0.06857170  0.11428617       0.008
  -0.11428617  0.06857170  0.02285723       0.008
  -0.20571511  0.06857170  0.11428617       0.008
   0.06857170 -0.02285723  0.11428617       0.008
   0.11428617  0.06857170 -0.16000064       0.008
   0.11428617 -0.02285723 -0.06857170       0.008
   0.02285723  0.06857170  0.11428617       0.008
   0.02285723 -0.11428617  0.06857170       0.008
   0.11428617 -0.20571511  0.06857170       0.008
   0.11428617  0.06857170 -0.02285723       0.008
  -0.16000064  0.11428617  0.06857170       0.008
  -0.06857170  0.11428617 -0.02285723       0.008
   0.11428617  0.02285723  0.06857170       0.008
   0.06857170  0.02285723 -0.11428617       0.008
   0.06857170  0.11428617 -0.20571511       0.008
  -0.02285723  0.11428617  0.06857170       0.008
  -0.11428617 -0.02285723  0.06857170       0.008
   0.06857170 -0.11428617 -0.02285723       0.008
  -0.02285723  0.06857170 -0.11428617       0.008
   0.02285723  0.02285723 -0.16000064       0.008
  -0.16000064  0.02285723  0.02285723       0.008
   0.02285723 -0.16000064  0.02285723       0.008
   0.16000064 -0.16000064  0.02285723       0.008
   0.16000064  0.02285723 -0.16000064       0.008
   0.16000064  0.02285723  0.02285723       0.008
  -0.02285723 -0.02285723  0.20571511       0.008
   0.16000064 -0.02285723  0.02285723       0.008
  -0.02285723  0.16000064  0.02285723       0.008
  -0.16000064  0.16000064  0.02285723       0.008
   0.02285723  0.16000064  0.02285723       0.008
   0.02285723  0.16000064 -0.16000064       0.008
   0.06857170  0.06857170  0.06857170       0.008
  -0.06857170  0.06857170  0.06857170       0.008
  -0.06857170 -0.06857170  0.06857170       0.008
   0.06857170 -0.06857170  0.06857170       0.008
   0.20571511 -0.06857170 -0.06857170       0.008
  -0.06857170  0.20571511 -0.06857170       0.008
  -0.06857170 -0.06857170  0.20571511       0.008
  -0.11428617  0.02285723  0.11428617       0.008
   0.16000064 -0.06857170 -0.06857170       0.008
  -0.11428617  0.11428617  0.02285723       0.008
  -0.02285723 -0.11428617  0.11428617       0.008
  -0.11428617 -0.02285723  0.11428617       0.008
   0.06857170  0.06857170 -0.16000064       0.008
  -0.06857170  0.16000064 -0.06857170       0.008
   0.02285723 -0.11428617  0.11428617       0.008
   0.11428617 -0.11428617  0.02285723       0.008

 k-points in reciprocal lattice and weights: pymatgen v2021.2.8.1 with grid density =
   0.12500000  0.12500000  0.12500000       0.008
   0.12500000  0.00000000  0.00000000       0.008
   0.00000000  0.00000000 -0.12500000       0.008
   0.00000000  0.12500000  0.00000000       0.008
   0.37500000  0.12500000  0.12500000       0.008
   0.12500000  0.37500000  0.12500000       0.008
   0.12500000  0.12500000  0.37500000       0.008
   0.12500000  0.00000000 -0.25000000       0.008
   0.37500000  0.25000000  0.25000000       0.008
   0.12500000 -0.25000000  0.00000000       0.008
   0.00000000  0.25000000 -0.12500000       0.008
   0.25000000  0.00000000 -0.12500000       0.008
  -0.25000000 -0.25000000 -0.37500000       0.008
   0.25000000  0.37500000  0.25000000       0.008
   0.00000000  0.12500000 -0.25000000       0.008
  -0.25000000  0.12500000  0.00000000       0.008
  -0.37500000  0.12500000  0.12500000       0.008
   0.12500000 -0.37500000  0.12500000       0.008
   0.12500000  0.12500000 -0.37500000       0.008
   0.12500000  0.00000000  0.50000000       0.008
  -0.37500000  0.50000000  0.50000000       0.008
   0.12500000  0.50000000  0.00000000       0.008
   0.00000000  0.50000000 -0.12500000       0.008
   0.50000000  0.00000000 -0.12500000       0.008
   0.50000000  0.50000000  0.37500000       0.008
   0.50000000 -0.37500000  0.50000000       0.008
   0.00000000  0.12500000  0.50000000       0.008
   0.50000000  0.12500000  0.00000000       0.008
  -0.12500000  0.12500000  0.12500000       0.008
   0.12500000 -0.12500000  0.12500000       0.008
   0.12500000  0.12500000 -0.12500000       0.008
   0.12500000  0.00000000  0.25000000       0.008
  -0.12500000 -0.25000000 -0.25000000       0.008
   0.12500000  0.25000000  0.00000000       0.008
   0.00000000 -0.25000000 -0.12500000       0.008
  -0.25000000  0.00000000 -0.12500000       0.008
   0.25000000  0.25000000  0.12500000       0.008
  -0.25000000 -0.12500000 -0.25000000       0.008
   0.00000000  0.12500000  0.25000000       0.008
   0.25000000  0.12500000  0.00000000       0.008
   0.37500000  0.37500000  0.12500000       0.008
   0.12500000  0.37500000  0.37500000       0.008
   0.37500000  0.12500000  0.37500000       0.008
   0.37500000  0.25000000  0.00000000       0.008
   0.37500000  0.00000000  0.25000000       0.008
   0.12500000 -0.25000000 -0.25000000       0.008
   0.25000000  0.25000000 -0.12500000       0.008
   0.00000000 -0.25000000 -0.37500000       0.008
  -0.25000000  0.00000000 -0.37500000       0.008
   0.25000000  0.37500000  0.00000000       0.008
  -0.25000000  0.12500000 -0.25000000       0.008
   0.00000000  0.37500000  0.25000000       0.008
  -0.37500000  0.37500000  0.12500000       0.008
   0.12500000 -0.37500000  0.37500000       0.008
   0.37500000  0.12500000 -0.37500000       0.008
   0.37500000  0.25000000 -0.25000000       0.008
  -0.37500000  0.25000000  0.50000000       0.008
   0.12500000  0.50000000 -0.25000000       0.008
   0.25000000  0.50000000 -0.12500000       0.008
   0.25000000 -0.25000000 -0.37500000       0.008
   0.50000000 -0.25000000  0.37500000       0.008
   0.50000000 -0.37500000  0.25000000       0.008
  -0.25000000  0.12500000  0.50000000       0.008
  -0.25000000  0.37500000  0.25000000       0.008
  -0.12500000  0.25000000  0.50000000       0.008
  -0.37500000  0.25000000 -0.25000000       0.008
   0.37500000  0.50000000 -0.25000000       0.008
   0.25000000  0.50000000 -0.37500000       0.008
   0.50000000 -0.25000000  0.12500000       0.008
   0.25000000 -0.25000000  0.37500000       0.008
   0.50000000 -0.12500000  0.25000000       0.008
  -0.25000000 -0.37500000  0.25000000       0.008
  -0.25000000  0.37500000  0.50000000       0.008
   0.37500000 -0.12500000 -0.37500000       0.008
  -0.37500000  0.37500000 -0.12500000       0.008
  -0.12500000 -0.37500000  0.37500000       0.008
  -0.12500000  0.37500000  0.12500000       0.008
   0.12500000 -0.12500000  0.37500000       0.008
   0.37500000  0.12500000 -0.12500000       0.008
   0.37500000  0.25000000  0.50000000       0.008
  -0.12500000  0.50000000 -0.25000000       0.008
   0.12500000  0.25000000 -0.25000000       0.008
   0.25000000 -0.25000000 -0.12500000       0.008
   0.50000000 -0.25000000 -0.37500000       0.008
   0.25000000  0.50000000  0.12500000       0.008
  -0.25000000 -0.12500000  0.50000000       0.008
  -0.25000000  0.12500000  0.25000000       0.008
   0.50000000  0.37500000  0.25000000       0.008
  -0.12500000  0.25000000 -0.25000000       0.008
  -0.37500000  0.50000000 -0.25000000       0.008
   0.12500000  0.25000000  0.50000000       0.008
   0.50000000 -0.25000000 -0.12500000       0.008
   0.25000000 -0.25000000  0.12500000       0.008
   0.25000000  0.50000000  0.37500000       0.008
  -0.25000000 -0.12500000  0.25000000       0.008
  -0.25000000 -0.37500000  0.50000000       0.008
   0.50000000  0.12500000  0.25000000       0.008
   0.12500000 -0.12500000 -0.37500000       0.008
  -0.37500000  0.12500000 -0.12500000       0.008
  -0.12500000 -0.37500000  0.12500000       0.008
  -0.37500000 -0.37500000  0.12500000       0.008
   0.12500000 -0.37500000 -0.37500000       0.008
  -0.37500000  0.12500000 -0.37500000       0.008
  -0.37500000  0.50000000  0.00000000       0.008
  -0.37500000  0.00000000  0.50000000       0.008
   0.12500000  0.50000000  0.50000000       0.008
   0.50000000  0.50000000 -0.12500000       0.008
   0.00000000  0.50000000  0.37500000       0.008
   0.50000000  0.00000000  0.37500000       0.008
   0.50000000 -0.37500000  0.00000000       0.008
   0.50000000  0.12500000  0.50000000       0.008
   0.00000000 -0.37500000  0.50000000       0.008
   0.37500000  0.37500000  0.37500000       0.008
   0.37500000  0.00000000  0.00000000       0.008
   0.00000000  0.00000000 -0.37500000       0.008
   0.00000000  0.37500000  0.00000000       0.008
  -0.37500000  0.37500000  0.37500000       0.008
   0.37500000 -0.37500000  0.37500000       0.008
   0.37500000  0.37500000 -0.37500000       0.008
   0.37500000  0.00000000 -0.25000000       0.008
  -0.37500000  0.25000000  0.25000000       0.008
   0.37500000 -0.25000000  0.00000000       0.008
   0.00000000  0.25000000 -0.37500000       0.008
   0.25000000  0.00000000 -0.37500000       0.008
  -0.25000000 -0.25000000  0.37500000       0.008
   0.25000000 -0.37500000  0.25000000       0.008
   0.00000000  0.37500000 -0.25000000       0.008
  -0.25000000  0.37500000  0.00000000       0.008

 position of ions in fractional coordinates (direct lattice) 
   0.78000000  0.77000000  0.73000000
   0.60000000  0.30000000  0.40000000

 position of ions in cartesian coordinates  (Angst):
   4.10154600  4.12888964  4.23826420
   1.91405480  2.73436400  2.46092760



--------------------------------------------------------------------------------------------------------


 k-point  1 :   0.1250 0.1250 0.1250  plane waves:     495
 k-point  2 :   0.1250 0.0000 0.0000  plane waves:     495
 k-point  3 :   0.0000 0.0000-0.1250  plane waves:     495
 k-point  4 :   0.0000 0.1250 0.0000  plane waves:     495
 k-point  5 :   0.3750 0.1250 0.1250  plane waves:     489
 k-point  6 :   0.1250 0.3750 0.1250  plane waves:     489
 k-point  7 :   0.1250 0.1250 0.3750  plane waves:     489
 k-point  8 :   0.1250 0.0000-0.2500  plane waves:     489
 k-point  9 :   0.3750 0.2500 0.2500  plane waves:     489
 k-point 10 :   0.1250-0.2500 0.0000  plane waves:     489
 k-point 11 :   0.0000 0.2500-0.1250  plane waves:     489
 k-point 12 :   0.2500 0.0000-0.1250  plane waves:     489
 k-point 13 :  -0.2500-0.2500-0.3750  plane waves:     489
 k-point 14 :   0.2500 0.3750 0.2500  plane waves:     489
 k-point 15 :   0.0000 0.1250-0.2500  plane waves:     489
 k-point 16 :  -0.2500 0.1250 0.0000  plane waves:     489
 k-point 17 :  -0.3750 0.1250 0.1250  plane waves:     475
 k-point 18 :   0.1250-0.3750 0.1250  plane waves:     475
 k-point 19 :   0.1250 0.1250-0.3750  plane waves:     475
 k-point 20 :   0.1250 0.0000 0.5000  plane waves:     475
 k-point 21 :  -0.3750 0.5000 0.5000  plane waves:     475
 k-point 22 :   0.1250 0.5000 0.0000  plane waves:     475
 k-point 23 :   0.0000 0.5000-0.1250  plane waves:     475
 k-point 24 :   0.5000 0.0000-0.1250  plane waves:     475
 k-point 25 :   0.5000 0.5000 0.3750  plane waves:     475
 k-point 26 :   0.5000-0.3750 0.5000  plane waves:     475
 k-point 27 :   0.0000 0.1250 0.5000  plane waves:     475
 k-point 28 :   0.5000 0.1250 0.0000  plane waves:     475
 k-point 29 :  -0.1250 0.1250 0.1250  plane waves:     489
 k-point 30 :   0.1250-0.1250 0.1250  plane waves:     489
 k-point 31 :   0.1250 0.1250-0.1250  plane waves:     489
 k-point 32 :   0.1250 0.0000 0.2500  plane waves:     489
 k-point 33 :  -0.1250-0.2500-0.2500  plane waves:     489
 k-point 34 :   0.1250 0.2500 0.0000  plane waves:     489
 k-point 35 :   0.0000-0.2500-0.1250  plane waves:     489
 k-point 36 :  -0.2500 0.0000-0.1250  plane waves:     489
 k-point 37 :   0.2500 0.2500 0.1250  plane waves:     489
 k-point 38 :  -0.2500-0.1250-0.2500  plane waves:     489
 k-point 39 :   0.0000 0.1250 0.2500  plane waves:     489
 k-point 40 :   0.2500 0.1250 0.0000  plane waves:     489
 k-point 41 :   0.3750 0.3750 0.1250  plane waves:     482
 k-point 42 :   0.1250 0.3750 0.3750  plane waves:     482
 k-point 43 :   0.3750 0.1250 0.3750  plane waves:     482
 k-point 44 :   0.3750 0.2500 0.0000  plane waves:     482
 k-point 45 :   0.3750 0.0000 0.2500  plane waves:     482
 k-point 46 :   0.1250-0.2500-0.2500  plane waves:     482
 k-point 47 :   0.2500 0.2500-0.1250  plane waves:     482
 k-point 48 :   0.0000-0.2500-0.3750  plane waves:     482
 k-point 49 :  -0.2500 0.0000-0.3750  plane waves:     482
 k-point 50 :   0.2500 0.3750 0.0000  plane waves:     482
 k-point 51 :  -0.2500 0.1250-0.2500  plane waves:     482
 k-point 52 :   0.0000 0.3750 0.2500  plane waves:     482
 k-point 53 :  -0.3750 0.3750 0.1250  plane waves:     479
 k-point 54 :   0.1250-0.3750 0.3750  plane waves:     479
 k-point 55 :   0.3750 0.1250-0.3750  plane waves:     479
 k-point 56 :   0.3750 0.2500-0.2500  plane waves:     479
 k-point 57 :  -0.3750 0.2500 0.5000  plane waves:     479
 k-point 58 :   0.1250 0.5000-0.2500  plane waves:     479
 k-point 59 :   0.2500 0.5000-0.1250  plane waves:     479
 k-point 60 :   0.2500-0.2500-0.3750  plane waves:     479
 k-point 61 :   0.5000-0.2500 0.3750  plane waves:     479
 k-point 62 :   0.5000-0.3750 0.2500  plane waves:     479
 k-point 63 :  -0.2500 0.1250 0.5000  plane waves:     479
 k-point 64 :  -0.2500 0.3750 0.2500  plane waves:     479
 k-point 65 :  -0.1250 0.2500 0.5000  plane waves:     479
 k-point 66 :  -0.3750 0.2500-0.2500  plane waves:     479
 k-point 67 :   0.3750 0.5000-0.2500  plane waves:     479
 k-point 68 :   0.2500 0.5000-0.3750  plane waves:     479
 k-point 69 :   0.5000-0.2500 0.1250  plane waves:     479
 k-point 70 :   0.2500-0.2500 0.3750  plane waves:     479
 k-point 71 :   0.5000-0.1250 0.2500  plane waves:     479
 k-point 72 :  -0.2500-0.3750 0.2500  plane waves:     479
 k-point 73 :  -0.2500 0.3750 0.5000  plane waves:     479
 k-point 74 :   0.3750-0.1250-0.3750  plane waves:     479
 k-point 75 :  -0.3750 0.3750-0.1250  plane waves:     479
 k-point 76 :  -0.1250-0.3750 0.3750  plane waves:     479
 k-point 77 :  -0.1250 0.3750 0.1250  plane waves:     482
 k-point 78 :   0.1250-0.1250 0.3750  plane waves:     482
 k-point 79 :   0.3750 0.1250-0.1250  plane waves:     482
 k-point 80 :   0.3750 0.2500 0.5000  plane waves:     482
 k-point 81 :  -0.1250 0.5000-0.2500  plane waves:     482
 k-point 82 :   0.1250 0.2500-0.2500  plane waves:     482
 k-point 83 :   0.2500-0.2500-0.1250  plane waves:     482
 k-point 84 :   0.5000-0.2500-0.3750  plane waves:     482
 k-point 85 :   0.2500 0.5000 0.1250  plane waves:     482
 k-point 86 :  -0.2500-0.1250 0.5000  plane waves:     482
 k-point 87 :  -0.2500 0.1250 0.2500  plane waves:     482
 k-point 88 :   0.5000 0.3750 0.2500  plane waves:     482
 k-point 89 :  -0.1250 0.2500-0.2500  plane waves:     482
 k-point 90 :  -0.3750 0.5000-0.2500  plane waves:     482
 k-point 91 :   0.1250 0.2500 0.5000  plane waves:     482
 k-point 92 :   0.5000-0.2500-0.1250  plane waves:     482
 k-point 93 :   0.2500-0.2500 0.1250  plane waves:     482
 k-point 94 :   0.2500 0.5000 0.3750  plane waves:     482
 k-point 95 :  -0.2500-0.1250 0.2500  plane waves:     482
 k-point 96 :  -0.2500-0.3750 0.5000  plane waves:     482
 k-point 97 :   0.5000 0.1250 0.2500  plane waves:     482
 k-point 98 :   0.1250-0.1250-0.3750  plane waves:     482
 k-point 99 :  -0.3750 0.1250-0.1250  plane waves:     482
 k-point ** :  -0.1250-0.3750 0.1250  plane waves:     482
 k-point ** :  -0.3750-0.3750 0.1250  plane waves:     476
 k-point ** :   0.1250-0.3750-0.3750  plane waves:     476
 k-point ** :  -0.3750 0.1250-0.3750  plane waves:     476
 k-point ** :  -0.3750 0.5000 0.0000  plane waves:     476
 k-point ** :  -0.3750 0.0000 0.5000  plane waves:     476
 k-point ** :   0.1250 0.5000 0.5000  plane waves:     476
 k-point ** :   0.5000 0.5000-0.1250  plane waves:     476
 k-point ** :   0.0000 0.5000 0.3750  plane waves:     476
 k-point ** :   0.5000 0.0000 0.3750  plane waves:     476
 k-point ** :   0.5000-0.3750 0.0000  plane waves:     476
 k-point ** :   0.5000 0.1250 0.5000  plane waves:     476
 k-point ** :   0.0000-0.3750 0.5000  plane waves:     476
 k-point ** :   0.3750 0.3750 0.3750  plane waves:     483
 k-point ** :   0.3750 0.0000 0.0000  plane waves:     483
 k-point ** :   0.0000 0.0000-0.3750  plane waves:     483
 k-point ** :   0.0000 0.3750 0.0000  plane waves:     483
 k-point ** :  -0.3750 0.3750 0.3750  plane waves:     481
 k-point ** :   0.3750-0.3750 0.3750  plane waves:     481
 k-point ** :   0.3750 0.3750-0.3750  plane waves:     481
 k-point ** :   0.3750 0.0000-0.2500  plane waves:     481
 k-point ** :  -0.3750 0.2500 0.2500  plane waves:     481
 k-point ** :   0.3750-0.2500 0.0000  plane waves:     481
 k-point ** :   0.0000 0.2500-0.3750  plane waves:     481
 k-point ** :   0.2500 0.0000-0.3750  plane waves:     481
 k-point ** :  -0.2500-0.2500 0.3750  plane waves:     481
 k-point ** :   0.2500-0.3750 0.2500  plane waves:     481
 k-point ** :   0.0000 0.3750-0.2500  plane waves:     481
 k-point ** :  -0.2500 0.3750 0.0000  plane waves:     481

 maximum and minimum number of plane-waves per node :       137      106

 maximum number of plane-waves:       495
 maximum index in each direction: 
   IXMAX=    5   IYMAX=    5   IZMAX=    5
   IXMIN=   -5   IYMIN=   -5   IZMIN=   -5


 real space projection operators:
  total allocation   :        534.88 KBytes
  max/ min on nodes  :        133.94        133.50


 parallel 3D FFT for wavefunctions:
    minimum data exchange during FFTs selected (reduces bandwidth)
 parallel 3D FFT for charge:
    minimum data exchange during FFTs selected (reduces bandwidth)


 total amount of memory used by VASP MPI-rank0    35065. kBytes
=======================================================================

   base      :      30000. kBytes
   nonlr-proj:        314. kBytes
   fftplans  :       1065. kBytes
   grid      :       1504. kBytes
   one-center:          3. kBytes
   wavefun   :       2179. kBytes

     INWAV:  cpu time    0.0000: real time    0.0000
 Broyden mixing: mesh for mixing (old mesh)
   NGX = 11   NGY = 11   NGZ = 11
  (NGX  = 48   NGY  = 48   NGZ  = 48)
  gives a total of   1331 points

 initial charge density was supplied:
 charge density of overlapping atoms calculated
 number of electron       8.0000000 magnetization 
 keeping initial charge density in first step


--------------------------------------------------------------------------------------------------------


 Maximum index for non-local projection operator         1070
 Maximum index for augmentation-charges         2741 (set IRDMAX)


--------------------------------------------------------------------------------------------------------


 First call to EWALD:  gamma=   0.514
 Maximum number of real-space cells 3x 3x 3
 Maximum number of reciprocal cells 3x 3x 3

    FEWALD:  cpu time    0.0000: real time    0.0005


--------------------------------------- Iteration      1(   1)  ---------------------------------------


    POTLOK:  cpu time    0.0156: real time    0.0132
    SETDIJ:  cpu time    0.0469: real time    0.0589
     EDDAV:  cpu time    0.4375: real time    0.4317
       DOS:  cpu time    0.0000: real time    0.0013
    --------------------------------------------
      LOOP:  cpu time    0.5000: real time    0.5051

 eigenvalue-minimisations  :  2056
 total energy-change (2. order) : 0.6422089E+01  (-0.2553182E+03)
 number of electron       8.0000000 magnetization 
 augmentation part        8.0000000 magnetization 

 Free energy of the ion-electron system (eV)
  ---------------------------------------------------
  alpha Z        PSCENC =         3.29318037
  Ewald energy   TEWEN  =      -218.56496444
  -Hartree energ DENC   =       -12.72510621
  -exchange      EXHF   =         0.00000000
  -V(xc)+E(xc)   XCENC  =       -18.63755638
  PAW double counting   =       176.24759923     -141.06103558
  entropy T*S    EENTRO =        -0.00073530
  eigenvalues    EBANDS =        11.74102155
  atomic energy  EATOM  =       206.12968587
  Solvation  Ediel_sol  =         0.00000000
  ---------------------------------------------------
  free energy    TOTEN  =         6.42208910 eV

  energy without entropy =        6.42282440  energy(sigma->0) =        6.42245675


--------------------------------------------------------------------------------------------------------




--------------------------------------- Iteration      1(   2)  ---------------------------------------


     EDDAV:  cpu time    0.5781: real time    0.5828
       DOS:  cpu time    0.0000: real time    0.0013
    --------------------------------------------
      LOOP:  cpu time    0.5781: real time    0.5842

 eigenvalue-minimisations  :  3168
 total energy-change (2. order) :-0.1340566E+02  (-0.1316834E+02)
 number of electron       8.0000000 magnetization 
 augmentation part        8.0000000 magnetization 

 Free energy of the ion-electron system (eV)
  ---------------------------------------------------
  alpha Z        PSCENC =         3.29318037
  Ewald energy   TEWEN  =      -218.56496444
  -Hartree energ DENC   =       -12.72510621
  -exchange      EXHF   =         0.00000000
  -V(xc)+E(xc)   XCENC  =       -18.63755638
  PAW double counting   =       176.24759923     -141.06103558
  entropy T*S    EENTRO =        -0.00116426
  eigenvalues    EBANDS =        -1.66421068
  atomic energy  EATOM  =       206.12968587
  Solvation  Ediel_sol  =         0.00000000
  ---------------------------------------------------
  free energy    TOTEN  =        -6.98357209 eV

  energy without entropy =       -6.98240783  energy(sigma->0) =       -6.98298996


--------------------------------------------------------------------------------------------------------




--------------------------------------- Iteration      1(   3)  ---------------------------------------


     EDDAV:  cpu time    0.7031: real time    0.6970
       DOS:  cpu time    0.0000: real time    0.0013
    --------------------------------------------
      LOOP:  cpu time    0.7031: real time    0.6983

 eigenvalue-minimisations  :  2632
 total energy-change (2. order) :-0.1870794E+00  (-0.1865617E+00)
 number of electron       8.0000000 magnetization 
 augmentation part        8.0000000 magnetization 

 Free energy of the ion-electron system (eV)
  ---------------------------------------------------
  alpha Z        PSCENC =         3.29318037
  Ewald energy   TEWEN  =      -218.56496444
  -Hartree energ DENC   =       -12.72510621
  -exchange      EXHF   =         0.00000000
  -V(xc)+E(xc)   XCENC  =       -18.63755638
  PAW double counting   =       176.24759923     -141.06103558
  entropy T*S    EENTRO =        -0.00115187
  eigenvalues    EBANDS =        -1.85130247
  atomic energy  EATOM  =       206.12968587
  Solvation  Ediel_sol  =         0.00000000
  ---------------------------------------------------
  free energy    TOTEN  =        -7.17065149 eV

  energy without entropy =       -7.16949962  energy(sigma->0) =       -7.17007556


--------------------------------------------------------------------------------------------------------




--------------------------------------- Iteration      1(   4)  ---------------------------------------


     EDDAV:  cpu time    0.6719: real time    0.6602
       DOS:  cpu time    0.0000: real time    0.0013
    --------------------------------------------
      LOOP:  cpu time    0.6719: real time    0.6615

 eigenvalue-minimisations  :  3440
 total energy-change (2. order) :-0.7340585E-03  (-0.7340018E-03)
 number of electron       8.0000000 magnetization 
 augmentation part        8.0000000 magnetization 

 Free energy of the ion-electron system (eV)
  ---------------------------------------------------
  alpha Z        PSCENC =         3.29318037
  Ewald energy   TEWEN  =      -218.56496444
  -Hartree energ DENC   =       -12.72510621
  -exchange      EXHF   =         0.00000000
  -V(xc)+E(xc)   XCENC  =       -18.63755638
  PAW double counting   =       176.24759923     -141.06103558
  entropy T*S    EENTRO =        -0.00114604
  eigenvalues    EBANDS =        -1.85204236
  atomic energy  EATOM  =       206.12968587
  Solvation  Ediel_sol  =         0.00000000
  ---------------------------------------------------
  free energy    TOTEN  =        -7.17138555 eV

  energy without entropy =       -7.17023951  energy(sigma->0) =       -7.17081253


--------------------------------------------------------------------------------------------------------




--------------------------------------- Iteration      1(   5)  ---------------------------------------


     EDDAV:  cpu time    0.5312: real time    0.5363
       DOS:  cpu time    0.0000: real time    0.0013
    CHARGE:  cpu time    0.0312: real time    0.0219
    MIXING:  cpu time    0.0000: real time    0.0004
    --------------------------------------------
      LOOP:  cpu time    0.5625: real time    0.5599

 eigenvalue-minimisations  :  2736
 total energy-change (2. order) :-0.4412238E-06  (-0.4409094E-06)
 number of electron       8.0000000 magnetization 
 augmentation part       -0.5113995 magnetization 

 Broyden mixing:
  rms(total) = 0.64339E+00    rms(broyden)= 0.64338E+00
  rms(prec ) = 0.14206E+01
  weight for this iteration     100.00

 Free energy of the ion-electron system (eV)
  ---------------------------------------------------
  alpha Z        PSCENC =         3.29318037
  Ewald energy   TEWEN  =      -218.56496444
  -Hartree energ DENC   =       -12.72510621
  -exchange      EXHF   =         0.00000000
  -V(xc)+E(xc)   XCENC  =       -18.63755638
  PAW double counting   =       176.24759923     -141.06103558
  entropy T*S    EENTRO =        -0.00114605
  eigenvalues    EBANDS =        -1.85204280
  atomic energy  EATOM  =       206.12968587
  Solvation  Ediel_sol  =         0.00000000
  ---------------------------------------------------
  free energy    TOTEN  =        -7.17138599 eV

  energy without entropy =       -7.17023995  energy(sigma->0) =       -7.17081297


--------------------------------------------------------------------------------------------------------




--------------------------------------- Iteration      1(   6)  ---------------------------------------


    POTLOK:  cpu time    0.0000: real time    0.0129
    SETDIJ:  cpu time    0.0625: real time    0.0602
    EDDIAG:  cpu time    0.0938: real time    0.0881
  RMM-DIIS:  cpu time    0.3125: real time    0.3212
    ORTHCH:  cpu time    0.0000: real time    0.0017
       DOS:  cpu time    0.0000: real time    0.0014
    CHARGE:  cpu time    0.0312: real time    0.0229
    MIXING:  cpu time    0.0000: real time    0.0006
    --------------------------------------------
      LOOP:  cpu time    0.5000: real time    0.5090

 eigenvalue-minimisations  :  2048
 total energy-change (2. order) : 0.5620907E+00  (-0.5262287E-01)
 number of electron       8.0000000 magnetization 
 augmentation part       -0.5042636 magnetization 

 Broyden mixing:
  rms(total) = 0.37130E+00    rms(broyden)= 0.37130E+00
  rms(prec ) = 0.65747E+00
  weight for this iteration     100.00

 eigenvalues of (default mixing * dielectric matrix)
  average eigenvalue GAMMA=   2.1755
  2.1755

 Free energy of the ion-electron system (eV)
  ---------------------------------------------------
  alpha Z        PSCENC =         3.29318037
  Ewald energy   TEWEN  =      -218.56496444
  -Hartree energ DENC   =       -14.95024853
  -exchange      EXHF   =         0.00000000
  -V(xc)+E(xc)   XCENC  =       -18.35118101
  PAW double counting   =       435.03307873     -400.05394350
  entropy T*S    EENTRO =        -0.00120629
  eigenvalues    EBANDS =         0.85630355
  atomic energy  EATOM  =       206.12968587
  Solvation  Ediel_sol  =         0.00000000
  ---------------------------------------------------
  free energy    TOTEN  =        -6.60929525 eV

  energy without entropy =       -6.60808896  energy(sigma->0) =       -6.60869210


--------------------------------------------------------------------------------------------------------




--------------------------------------- Iteration      1(   7)  ---------------------------------------


    POTLOK:  cpu time    0.0156: real time    0.0132
    SETDIJ:  cpu time    0.0469: real time    0.0588
    EDDIAG:  cpu time    0.0938: real time    0.0864
  RMM-DIIS:  cpu time    0.3125: real time    0.3157
    ORTHCH:  cpu time    0.0000: real time    0.0016
       DOS:  cpu time    0.0156: real time    0.0014
    CHARGE:  cpu time    0.0156: real time    0.0241
    MIXING:  cpu time    0.0000: real time    0.0005
    --------------------------------------------
      LOOP:  cpu time    0.5000: real time    0.5018

 eigenvalue-minimisations  :  2048
 total energy-change (2. order) : 0.1024374E+00  (-0.3037158E-01)
 number of electron       8.0000000 magnetization 
 augmentation part       -0.4991334 magnetization 

 Broyden mixing:
  rms(total) = 0.11710E+00    rms(broyden)= 0.11710E+00
  rms(prec ) = 0.17915E+00
  weight for this iteration     100.00

 eigenvalues of (default mixing * dielectric matrix)
  average eigenvalue GAMMA=   1.9209
  1.6015  2.2403

 Free energy of the ion-electron system (eV)
  ---------------------------------------------------
  alpha Z        PSCENC =         3.29318037
  Ewald energy   TEWEN  =      -218.56496444
  -Hartree energ DENC   =       -16.84129292
  -exchange      EXHF   =         0.00000000
  -V(xc)+E(xc)   XCENC  =       -18.07890376
  PAW double counting   =       867.74307353     -832.94073680
  entropy T*S    EENTRO =        -0.00100908
  eigenvalues    EBANDS =         2.75410936
  atomic energy  EATOM  =       206.12968587
  Solvation  Ediel_sol  =         0.00000000
  ---------------------------------------------------
  free energy    TOTEN  =        -6.50685787 eV

  energy without entropy =       -6.50584879  energy(sigma->0) =       -6.50635333


--------------------------------------------------------------------------------------------------------




--------------------------------------- Iteration      1(   8)  ---------------------------------------


    POTLOK:  cpu time    0.0156: real time    0.0139
    SETDIJ:  cpu time    0.0625: real time    0.0606
    EDDIAG:  cpu time    0.0938: real time    0.0928
  RMM-DIIS:  cpu time    0.3281: real time    0.3213
    ORTHCH:  cpu time    0.0000: real time    0.0022
       DOS:  cpu time    0.0000: real time    0.0013
    CHARGE:  cpu time    0.0156: real time    0.0241
    MIXING:  cpu time    0.0000: real time    0.0005
    --------------------------------------------
      LOOP:  cpu time    0.5156: real time    0.5168

 eigenvalue-minimisations  :  2058
 total energy-change (2. order) : 0.4829009E-02  (-0.1451214E-02)
 number of electron       8.0000000 magnetization 
 augmentation part       -0.4994564 magnetization 

 Broyden mixing:
  rms(total) = 0.13000E-01    rms(broyden)= 0.12999E-01
  rms(prec ) = 0.24715E-01
  weight for this iteration     100.00

 eigenvalues of (default mixing * dielectric matrix)
  average eigenvalue GAMMA=   1.8276
  2.3555  1.5637  1.5637

 Free energy of the ion-electron system (eV)
  ---------------------------------------------------
  alpha Z        PSCENC =         3.29318037
  Ewald energy   TEWEN  =      -218.56496444
  -Hartree energ DENC   =       -17.01836718
  -exchange      EXHF   =         0.00000000
  -V(xc)+E(xc)   XCENC  =       -18.01000133
  PAW double counting   =      1094.21548075    -1059.44901302
  entropy T*S    EENTRO =        -0.00107155
  eigenvalues    EBANDS =         2.90304168
  atomic energy  EATOM  =       206.12968587
  Solvation  Ediel_sol  =         0.00000000
  ---------------------------------------------------
  free energy    TOTEN  =        -6.50202886 eV

  energy without entropy =       -6.50095731  energy(sigma->0) =       -6.50149309


--------------------------------------------------------------------------------------------------------




--------------------------------------- Iteration      1(   9)  ---------------------------------------


    POTLOK:  cpu time    0.0156: real time    0.0150
    SETDIJ:  cpu time    0.0625: real time    0.0631
    EDDIAG:  cpu time    0.0938: real time    0.0895
  RMM-DIIS:  cpu time    0.3125: real time    0.3192
    ORTHCH:  cpu time    0.0156: real time    0.0017
       DOS:  cpu time    0.0000: real time    0.0014
    CHARGE:  cpu time    0.0156: real time    0.0239
    MIXING:  cpu time    0.0000: real time    0.0005
    --------------------------------------------
      LOOP:  cpu time    0.5156: real time    0.5142

 eigenvalue-minimisations  :  2063
 total energy-change (2. order) :-0.1044226E-03  (-0.7043029E-04)
 number of electron       8.0000000 magnetization 
 augmentation part       -0.4997278 magnetization 

 Broyden mixing:
  rms(total) = 0.70764E-02    rms(broyden)= 0.70764E-02
  rms(prec ) = 0.11591E-01
  weight for this iteration     100.00

 eigenvalues of (default mixing * dielectric matrix)
  average eigenvalue GAMMA=   1.9297
  1.1417  1.5127  2.5322  2.5322

 Free energy of the ion-electron system (eV)
  ---------------------------------------------------
  alpha Z        PSCENC =         3.29318037
  Ewald energy   TEWEN  =      -218.56496444
  -Hartree energ DENC   =       -17.03271130
  -exchange      EXHF   =         0.00000000
  -V(xc)+E(xc)   XCENC  =       -18.00063322
  PAW double counting   =      1112.88856852    -1078.12576222
  entropy T*S    EENTRO =        -0.00106122
  eigenvalues    EBANDS =         2.91156437
  atomic energy  EATOM  =       206.12968587
  Solvation  Ediel_sol  =         0.00000000
  ---------------------------------------------------
  free energy    TOTEN  =        -6.50213328 eV

  energy without entropy =       -6.50107206  energy(sigma->0) =       -6.50160267


--------------------------------------------------------------------------------------------------------




--------------------------------------- Iteration      1(  10)  ---------------------------------------


    POTLOK:  cpu time    0.0156: real time    0.0147
    SETDIJ:  cpu time    0.0625: real time    0.0618
    EDDIAG:  cpu time    0.0938: real time    0.0979
  RMM-DIIS:  cpu time    0.3594: real time    0.3548
    ORTHCH:  cpu time    0.0000: real time    0.0017
       DOS:  cpu time    0.0000: real time    0.0013
    --------------------------------------------
      LOOP:  cpu time    0.5312: real time    0.5321

 eigenvalue-minimisations  :  2048
 total energy-change (2. order) :-0.9216253E-05  (-0.1129097E-04)
 number of electron       8.0000000 magnetization 
 augmentation part       -0.4997278 magnetization 

 Free energy of the ion-electron system (eV)
  ---------------------------------------------------
  alpha Z        PSCENC =         3.29318037
  Ewald energy   TEWEN  =      -218.56496444
  -Hartree energ DENC   =       -17.00715241
  -exchange      EXHF   =         0.00000000
  -V(xc)+E(xc)   XCENC  =       -18.00068390
  PAW double counting   =      1105.85583827    -1071.09221279
  entropy T*S    EENTRO =        -0.00106125
  eigenvalues    EBANDS =         2.88522780
  atomic energy  EATOM  =       206.12968587
  Solvation  Ediel_sol  =         0.00000000
  ---------------------------------------------------
  free energy    TOTEN  =        -6.50214250 eV

  energy without entropy =       -6.50108124  energy(sigma->0) =       -6.50161187


--------------------------------------------------------------------------------------------------------




 average (electrostatic) potential at core
  the test charge radii are     0.9892
  (the norm of the test charge is              1.0000)
       1 -84.0294       2 -84.0294



 E-fermi :   5.6150     XC(G=0):  -9.3873     alpha+bet :-11.7317


 k-point     1 :       0.1250    0.1250    0.1250
  band No.  band energies     occupation 
      1      -6.5302      2.00000
      2       2.6247      2.00000
      3       4.6891      2.00000
      4       6.2388      0.00000
      5       6.8777      0.00000
      6       7.5313      0.00000
      7      10.2406      0.00000
      8      11.0173      0.00000

 k-point     2 :       0.1250    0.0000    0.0000
  band No.  band energies     occupation 
      1      -6.5189      2.00000
      2       2.5679      2.00000
      3       4.4190      2.00000
      4       6.0510      0.00000
      5       6.9511      0.00000
      6       8.9947      0.00000
      7       9.7951      0.00000
      8      10.8707      0.00000

 k-point     3 :       0.0000    0.0000   -0.1250
  band No.  band energies     occupation 
      1      -6.4956      2.00000
      2       2.0552      2.00000
      3       5.5808      1.66583
      4       5.9605      0.00000
      5       6.4908      0.00000
      6       8.9282      0.00000
      7       9.3512      0.00000
      8      10.9179      0.00000

 k-point     4 :       0.0000    0.1250    0.0000
  band No.  band energies     occupation 
      1      -6.4847      2.00000
      2       1.8955      2.00000
      3       5.4712      1.99995
      4       5.7838      0.00000
      5       7.7869      0.00000
      6       8.6005      0.00000
      7       9.1329      0.00000
      8      10.4914      0.00000

 k-point     5 :       0.3750    0.1250    0.1250
  band No.  band energies     occupation 
      1      -5.7308      2.00000
      2       1.4449      2.00000
      3       2.7641      2.00000
      4       4.1249      2.00000
      5       6.7506      0.00000
      6       9.3607      0.00000
      7      10.8743      0.00000
      8      11.0533      0.00000

 k-point     6 :       0.1250    0.3750    0.1250
  band No.  band energies     occupation 
      1      -5.5120      2.00000
      2      -0.1991      2.00000
      3       3.7371      2.00000
      4       4.8077      2.00000
      5       8.1922      0.00000
      6       8.8891      0.00000
      7       9.7068      0.00000
      8      10.8501      0.00000

 k-point     7 :       0.1250    0.1250    0.3750
  band No.  band energies     occupation 
      1      -5.5870      2.00000
      2       0.1882      2.00000
      3       3.7106      2.00000
      4       4.9419      2.00000
      5       6.3894      0.00000
      6       8.8294      0.00000
      7      10.3931      0.00000
      8      11.6830      0.00000

 k-point     8 :       0.1250    0.0000   -0.2500
  band No.  band energies     occupation 
      1      -5.5595      2.00000
      2       0.1652      2.00000
      3       3.0612      2.00000
      4       5.9497      0.00000
      5       6.3932      0.00000
      6       8.3281      0.00000
      7      10.5032      0.00000
      8      11.7155      0.00000

 k-point     9 :       0.3750    0.2500    0.2500
  band No.  band energies     occupation 
      1      -5.7734      2.00000
      2       1.8791      2.00000
      3       2.7346      2.00000
      4       3.8852      2.00000
      5       6.7326      0.00000
      6       8.5770      0.00000
      7      10.4623      0.00000
      8      11.5278      0.00000

 k-point    10 :       0.1250   -0.2500    0.0000
  band No.  band energies     occupation 
      1      -5.4702      2.00000
      2      -0.3230      2.00000
      3       3.3057      2.00000
      4       5.5759      1.73109
      5       7.6187      0.00000
      6       9.4558      0.00000
      7       9.6095      0.00000
      8      11.4585      0.00000

 k-point    11 :       0.0000    0.2500   -0.1250
  band No.  band energies     occupation 
      1      -5.3709      2.00000
      2      -0.7458      2.00000
      3       3.6627      2.00000
      4       5.8173      0.00000
      5       7.7932      0.00000
      6       8.4945      0.00000
      7      10.5175      0.00000
      8      11.1488      0.00000

 k-point    12 :       0.2500    0.0000   -0.1250
  band No.  band energies     occupation 
      1      -5.6580      2.00000
      2       1.4260      2.00000
      3       1.6740      2.00000
      4       5.9771      0.00000
      5       6.5777      0.00000
      6       8.3782      0.00000
      7      10.8417      0.00000
      8      10.9272      0.00000

 k-point    13 :      -0.2500   -0.2500   -0.3750
  band No.  band energies     occupation 
      1      -5.7276      2.00000
      2       1.5687      2.00000
      3       2.1952      2.00000
      4       5.4097      2.00000
      5       6.2933      0.00000
      6       8.1617      0.00000
      7      10.4126      0.00000
      8      11.2552      0.00000

 k-point    14 :       0.2500    0.3750    0.2500
  band No.  band energies     occupation 
      1      -5.7038      2.00000
      2       1.2664      2.00000
      3       2.2660      2.00000
      4       5.4774      1.99990
      5       7.1959      0.00000
      6       7.7733      0.00000
      7       9.8755      0.00000
      8      11.2889      0.00000

 k-point    15 :       0.0000    0.1250   -0.2500
  band No.  band energies     occupation 
      1      -5.4253      2.00000
      2      -0.5297      2.00000
      3       3.5834      2.00000
      4       6.0980      0.00000
      5       7.2204      0.00000
      6       7.7446      0.00000
      7      10.7782      0.00000
      8      11.6529      0.00000

 k-point    16 :      -0.2500    0.1250    0.0000
  band No.  band energies     occupation 
      1      -5.6218      2.00000
      2       0.7380      2.00000
      3       2.2596      2.00000
      4       5.8491      0.00000
      5       7.2025      0.00000
      6       8.3762      0.00000
      7      10.3699      0.00000
      8      11.4842      0.00000

 k-point    17 :      -0.3750    0.1250    0.1250
  band No.  band energies     occupation 
      1      -4.9547      2.00000
      2      -0.3046      2.00000
      3       2.2121      2.00000
      4       4.5494      2.00000
      5       5.9477      0.00000
      6       9.0246      0.00000
      7      10.7529      0.00000
      8      12.3184      0.00000

 k-point    18 :       0.1250   -0.3750    0.1250
  band No.  band energies     occupation 
      1      -3.9647      2.00000
      2      -2.6927      2.00000
      3       3.7105      2.00000
      4       4.3994      2.00000
      5       7.6519      0.00000
      6       8.0951      0.00000
      7      11.4811      0.00000
      8      12.0631      0.00000

 k-point    19 :       0.1250    0.1250   -0.3750
  band No.  band energies     occupation 
      1      -4.4244      2.00000
      2      -1.9192      2.00000
      3       3.6096      2.00000
      4       4.7960      2.00000
      5       5.9465      0.00000
      6       7.9995      0.00000
      7      11.5406      0.00000
      8      12.8082      0.00000

 k-point    20 :       0.1250    0.0000    0.5000
  band No.  band energies     occupation 
      1      -4.4125      2.00000
      2      -1.9262      2.00000
      3       3.2158      2.00000
      4       5.3208      2.00000
      5       6.2641      0.00000
      6       7.5500      0.00000
      7      11.5969      0.00000
      8      12.9095      0.00000

 k-point    21 :      -0.3750    0.5000    0.5000
  band No.  band energies     occupation 
      1      -5.1214      2.00000
      2       0.4091      2.00000
      3       2.1771      2.00000
      4       4.1236      2.00000
      5       5.9050      0.00000
      6       8.4865      0.00000
      7      10.2733      0.00000
      8      12.2310      0.00000

 k-point    22 :       0.1250    0.5000    0.0000
  band No.  band energies     occupation 
      1      -4.0114      2.00000
      2      -2.6170      2.00000
      3       3.3949      2.00000
      4       4.8094      2.00000
      5       7.1491      0.00000
      6       8.7297      0.00000
      7      11.0207      0.00000
      8      11.9132      0.00000

 k-point    23 :       0.0000    0.5000   -0.1250
  band No.  band energies     occupation 
      1      -4.1212      2.00000
      2      -2.4304      2.00000
      3       3.1406      2.00000
      4       4.7386      2.00000
      5       7.8954      0.00000
      6       8.9819      0.00000
      7      10.2297      0.00000
      8      10.8601      0.00000

 k-point    24 :       0.5000    0.0000   -0.1250
  band No.  band energies     occupation 
      1      -4.9220      2.00000
      2      -0.3128      2.00000
      3       1.7149      2.00000
      4       5.3567      2.00000
      5       6.7841      0.00000
      6       7.5970      0.00000
      7      10.6844      0.00000
      8      12.4817      0.00000

 k-point    25 :       0.5000    0.5000    0.3750
  band No.  band energies     occupation 
      1      -5.0993      2.00000
      2       0.4321      2.00000
      3       1.6938      2.00000
      4       5.0571      2.00000
      5       5.9788      0.00000
      6       7.7670      0.00000
      7      10.2058      0.00000
      8      12.1665      0.00000

 k-point    26 :       0.5000   -0.3750    0.5000
  band No.  band energies     occupation 
      1      -5.0922      2.00000
      2       0.4783      2.00000
      3       1.5461      2.00000
      4       4.7349      2.00000
      5       7.2980      0.00000
      6       7.4872      0.00000
      7       9.1991      0.00000
      8      12.2264      0.00000

 k-point    27 :       0.0000    0.1250    0.5000
  band No.  band energies     occupation 
      1      -4.4931      2.00000
      2      -1.7176      2.00000
      3       2.8820      2.00000
      4       4.9459      2.00000
      5       7.1069      0.00000
      6       8.1113      0.00000
      7      10.0345      0.00000
      8      11.9070      0.00000

 k-point    28 :       0.5000    0.1250    0.0000
  band No.  band energies     occupation 
      1      -4.9339      2.00000
      2      -0.2115      2.00000
      3       1.6081      2.00000
      4       5.1017      2.00000
      5       7.2112      0.00000
      6       7.8986      0.00000
      7       9.8227      0.00000
      8      12.4299      0.00000

 k-point    29 :      -0.1250    0.1250    0.1250
  band No.  band energies     occupation 
      1      -6.0581      2.00000
      2       1.8843      2.00000
      3       2.9962      2.00000
      4       5.5099      1.99703
      5       6.0087      0.00000
      6       9.7927      0.00000
      7      10.6963      0.00000
      8      11.8158      0.00000

 k-point    30 :       0.1250   -0.1250    0.1250
  band No.  band energies     occupation 
      1      -5.9442      2.00000
      2       0.5118      2.00000
      3       4.2735      2.00000
      4       5.8180      0.00000
      5       7.3954      0.00000
      6       8.5328      0.00000
      7      10.0297      0.00000
      8      10.6503      0.00000

 k-point    31 :       0.1250    0.1250   -0.1250
  band No.  band energies     occupation 
      1      -5.9788      2.00000
      2       0.7631      2.00000
      3       4.4328      2.00000
      4       5.7859      0.00000
      5       6.2100      0.00000
      6       8.4388      0.00000
      7      10.3559      0.00000
      8      11.1200      0.00000

 k-point    32 :       0.1250    0.0000    0.2500
  band No.  band energies     occupation 
      1      -5.9808      2.00000
      2       0.7389      2.00000
      3       4.6138      2.00000
      4       5.2495      2.00000
      5       7.2145      0.00000
      6       8.0381      0.00000
      7      10.2326      0.00000
      8      10.5057      0.00000

 k-point    33 :      -0.1250   -0.2500   -0.2500
  band No.  band energies     occupation 
      1      -6.0931      2.00000
[...]
      3       2.4999      2.00000
      4       3.2558      2.00000
      5       8.4882      0.00000
      6       8.7409      0.00000
      7      10.4776      0.00000
      8      11.7855      0.00000

 k-point    95 :      -0.2500   -0.1250    0.2500
  band No.  band energies     occupation 
      1      -3.9555      2.00000
      2      -0.7283      2.00000
      3       2.2480      2.00000
      4       4.3133      2.00000
      5       8.2418      0.00000
      6       9.7566      0.00000
      7      10.3181      0.00000
      8      11.3125      0.00000

 k-point    96 :      -0.2500   -0.3750    0.5000
  band No.  band energies     occupation 
      1      -4.1045      2.00000
      2      -0.1892      2.00000
      3       1.9139      2.00000
      4       4.2577      2.00000
      5       8.0770      0.00000
      6       9.5918      0.00000
      7      10.4915      0.00000
      8      10.9268      0.00000

 k-point    97 :       0.5000    0.1250    0.2500
  band No.  band energies     occupation 
      1      -4.0406      2.00000
      2      -0.4441      2.00000
      3       2.1202      2.00000
      4       4.1620      2.00000
      5       8.4114      0.00000
      6       9.5697      0.00000
      7      10.2036      0.00000
      8      11.2584      0.00000

 k-point    98 :       0.1250   -0.1250   -0.3750
  band No.  band energies     occupation 
      1      -3.9507      2.00000
      2      -0.7715      2.00000
      3       2.4215      2.00000
      4       4.1489      2.00000
      5       8.1885      0.00000
      6       9.4539      0.00000
      7      10.5389      0.00000
      8      11.8241      0.00000

 k-point    99 :      -0.3750    0.1250   -0.1250
  band No.  band energies     occupation 
      1      -4.0969      2.00000
      2      -0.3195      2.00000
      3       2.4287      2.00000
      4       3.6744      2.00000
      5       8.7352      0.00000
      6       9.0444      0.00000
      7      10.1993      0.00000
      8      11.6114      0.00000

 k-point   100 :      -0.1250   -0.3750    0.1250
  band No.  band energies     occupation 
      1      -4.2338      2.00000
      2       0.3195      2.00000
      3       1.9393      2.00000
      4       3.7403      2.00000
      5       8.1275      0.00000
      6       9.0943      0.00000
      7      10.6739      0.00000
      8      11.0461      0.00000

 k-point   101 :      -0.3750   -0.3750    0.1250
  band No.  band energies     occupation 
      1      -2.9935      2.00000
      2      -1.3983      2.00000
      3       2.2020      2.00000
      4       3.2238      2.00000
      5       6.5468      0.00000
      6       7.4017      0.00000
      7      13.7041      0.00000
      8      14.1242      0.00000

 k-point   102 :       0.1250   -0.3750   -0.3750
  band No.  band energies     occupation 
      1      -2.9964      2.00000
      2      -1.3949      2.00000
      3       2.2085      2.00000
      4       3.2212      2.00000
      5       6.5203      0.00000
      6       7.4234      0.00000
      7      13.6802      0.00000
      8      14.1314      0.00000

 k-point   103 :      -0.3750    0.1250   -0.3750
  band No.  band energies     occupation 
      1      -3.2659      2.00000
      2      -0.8474      2.00000
      3       2.4945      2.00000
      4       2.5702      2.00000
      5       6.0677      1.99777
      6       7.9818      0.00000
      7      13.6981      0.00000
      8      13.7470      0.00000

 k-point   104 :      -0.3750    0.5000    0.0000
  band No.  band energies     occupation 
      1      -3.1905      2.00000
      2      -1.0300      2.00000
      3       2.3211      2.00000
      4       2.8828      2.00000
      5       6.3604      0.00000
      6       7.6397      0.00000
      7      13.3353      0.00000
      8      13.8149      0.00000

 k-point   105 :      -0.3750    0.0000    0.5000
  band No.  band energies     occupation 
      1      -3.1184      2.00000
      2      -1.1020      2.00000
      3       1.8576      2.00000
      4       3.2990      2.00000
      5       6.8445      0.00000
      6       7.2283      0.00000
      7      13.5756      0.00000
      8      13.8814      0.00000

 k-point   106 :       0.1250    0.5000    0.5000
  band No.  band energies     occupation 
      1      -3.1047      2.00000
      2      -1.1796      2.00000
      3       2.0685      2.00000
      4       3.2293      2.00000
      5       6.5525      0.00000
      6       7.4229      0.00000
      7      13.3481      0.00000
      8      13.9614      0.00000

 k-point   107 :       0.5000    0.5000   -0.1250
  band No.  band energies     occupation 
      1      -3.1093      2.00000
      2      -1.1676      2.00000
      3       2.0516      2.00000
      4       3.2327      2.00000
      5       6.5824      0.00000
      6       7.3992      0.00000
      7      13.3455      0.00000
      8      13.9432      0.00000

 k-point   108 :       0.0000    0.5000    0.3750
  band No.  band energies     occupation 
      1      -3.1878      2.00000
      2      -1.0352      2.00000
      3       2.3107      2.00000
      4       2.8943      2.00000
      5       6.3879      0.00000
      6       7.6130      0.00000
      7      13.3284      0.00000
      8      13.8012      0.00000

 k-point   109 :       0.5000    0.0000    0.3750
  band No.  band energies     occupation 
      1      -3.1251      2.00000
      2      -1.0866      2.00000
      3       1.8467      2.00000
      4       3.2997      2.00000
      5       6.8483      0.00000
      6       7.2260      0.00000
      7      13.5499      0.00000
      8      13.8716      0.00000

 k-point   110 :       0.5000   -0.3750    0.0000
  band No.  band energies     occupation 
      1      -2.9838      2.00000
      2      -1.4413      2.00000
      3       2.5979      2.00000
      4       2.8714      2.00000
      5       6.2999      0.00045
      6       7.6172      0.00000
      7      13.9324      0.00000
      8      14.2821      0.00000

 k-point   111 :       0.5000    0.1250    0.5000
  band No.  band energies     occupation 
      1      -3.1820      2.00000
      2      -1.0433      2.00000
      3       2.5611      2.00000
      4       2.6502      2.00000
      5       6.0387      1.99989
      6       7.9598      0.00000
      7      13.8784      0.00000
      8      14.1175      0.00000

 k-point   112 :       0.0000   -0.3750    0.5000
  band No.  band energies     occupation 
      1      -2.9712      2.00000
      2      -1.4630      2.00000
      3       2.5978      2.00000
      4       2.8809      2.00000
      5       6.3243      0.00003
      6       7.5920      0.00000
      7      13.9529      0.00000
      8      14.2890      0.00000

 k-point   113 :       0.3750    0.3750    0.3750
  band No.  band energies     occupation 
      1      -4.6534      2.00000
      2      -0.1740      2.00000
      3       3.8099      2.00000
      4       5.2927      2.00000
      5       7.0641      0.00000
      6       8.2375      0.00000
      7       9.7513      0.00000
      8      13.2204      0.00000

 k-point   114 :       0.3750    0.0000    0.0000
  band No.  band energies     occupation 
      1      -4.5188      2.00000
      2      -0.6431      2.00000
      3       4.1362      2.00000
      4       5.2302      2.00000
      5       7.2622      0.00000
      6       8.5325      0.00000
      7       9.9151      0.00000
      8      13.3315      0.00000

 k-point   115 :       0.0000    0.0000   -0.3750
  band No.  band energies     occupation 
      1      -4.5088      2.00000
      2      -0.6745      2.00000
      3       4.1610      2.00000
      4       5.2153      2.00000
      5       7.2824      0.00000
      6       8.5748      0.00000
      7       9.9076      0.00000
      8      13.3471      0.00000

 k-point   116 :       0.0000    0.3750    0.0000
  band No.  band energies     occupation 
      1      -4.7792      2.00000
      2       0.3308      2.00000
      3       3.9309      2.00000
      4       4.6935      2.00000
      5       6.9516      0.00000
      6       8.3680      0.00000
      7       9.1481      0.00000
      8      13.1182      0.00000

 k-point   117 :      -0.3750    0.3750    0.3750
  band No.  band energies     occupation 
      1      -3.4502      2.00000
      2      -0.9350      2.00000
      3       1.4155      2.00000
      4       4.0827      2.00000
      5       7.4345      0.00000
      6      10.4914      0.00000
      7      11.0478      0.00000
      8      12.4477      0.00000

 k-point   118 :       0.3750   -0.3750    0.3750
  band No.  band energies     occupation 
      1      -3.6290      2.00000
      2      -0.6396      2.00000
      3       2.0333      2.00000
      4       3.2239      2.00000
      5       6.9320      0.00000
      6      10.9854      0.00000
      7      11.6113      0.00000
      8      13.3385      0.00000

 k-point   119 :       0.3750    0.3750   -0.3750
  band No.  band energies     occupation 
      1      -3.4444      2.00000
      2      -0.9458      2.00000
      3       1.4093      2.00000
      4       4.0904      2.00000
      5       7.4696      0.00000
      6      10.4764      0.00000
      7      11.0068      0.00000
      8      12.4591      0.00000

 k-point   120 :       0.3750    0.0000   -0.2500
  band No.  band energies     occupation 
      1      -3.1496      2.00000
      2      -1.5423      2.00000
      3       1.5645      2.00000
      4       4.1922      2.00000
      5       7.9033      0.00000
      6      10.6074      0.00000
      7      10.8552      0.00000
      8      12.1532      0.00000

 k-point   121 :      -0.3750    0.2500    0.2500
  band No.  band energies     occupation 
      1      -3.2652      2.00000
      2      -1.3788      2.00000
      3       1.6996      2.00000
      4       4.0448      2.00000
      5       7.4198      0.00000
      6      10.8710      0.00000
      7      11.3905      0.00000
      8      12.1283      0.00000

 k-point   122 :       0.3750   -0.2500    0.0000
  band No.  band energies     occupation 
      1      -3.3769      2.00000
      2      -1.2337      2.00000
      3       2.0494      2.00000
      4       3.5904      2.00000
      5       7.2162      0.00000
      6      11.0022      0.00000
      7      11.6667      0.00000
      8      12.2164      0.00000

 k-point   123 :       0.0000    0.2500   -0.3750
  band No.  band energies     occupation 
      1      -3.3559      2.00000
      2      -1.2759      2.00000
      3       2.0556      2.00000
      4       3.6036      2.00000
      5       7.2457      0.00000
      6      11.0174      0.00000
      7      11.6562      0.00000
      8      12.1779      0.00000

 k-point   124 :       0.2500    0.0000   -0.3750
  band No.  band energies     occupation 
      1      -3.1309      2.00000
      2      -1.5768      2.00000
      3       1.5817      2.00000
      4       4.1891      2.00000
      5       7.9024      0.00000
      6      10.6368      0.00000
      7      10.8886      0.00000
      8      12.1060      0.00000

 k-point   125 :      -0.2500   -0.2500    0.3750
  band No.  band energies     occupation 
      1      -3.2420      2.00000
      2      -1.4222      2.00000
      3       1.7102      2.00000
      4       4.0494      2.00000
      5       7.4539      0.00000
      6      10.8936      0.00000
      7      11.3753      0.00000
      8      12.0845      0.00000

 k-point   126 :       0.2500   -0.3750    0.2500
  band No.  band energies     occupation 
      1      -3.7522      2.00000
      2      -0.1808      2.00000
      3       1.6645      2.00000
      4       3.2563      2.00000
      5       6.9501      0.00000
      6      10.8438      0.00000
      7      11.1278      0.00000
      8      13.6058      0.00000

 k-point   127 :       0.0000    0.3750   -0.2500
  band No.  band energies     occupation 
      1      -3.6688      2.00000
      2      -0.3738      2.00000
      3       1.4070      2.00000
      4       3.6770      2.00000
      5       7.2788      0.00000
      6      10.4951      0.00000
      7      10.8177      0.00000
      8      12.5175      0.00000

 k-point   128 :      -0.2500    0.3750    0.0000
  band No.  band energies     occupation 
      1      -3.6741      2.00000
      2      -0.3608      2.00000
      3       1.4161      2.00000
      4       3.6603      2.00000
      5       7.2483      0.00000
      6      10.5073      0.00000
      7      10.8573      0.00000
      8      12.5142      0.00000


--------------------------------------------------------------------------------------------------------


 soft charge-density along one line, spin component           1
         0         1         2         3         4         5         6         7         8         9
 total charge-density along one line

 pseudopotential strength for first ion, spin component:           1
 18.448  25.739   0.005  -0.002  -0.001   0.009  -0.003  -0.002
 25.739  35.915   0.007  -0.002  -0.002   0.013  -0.004  -0.003
  0.005   0.007   4.183   0.000   0.000   7.795   0.000   0.000
 -0.002  -0.002   0.000   4.183  -0.001   0.000   7.795  -0.002
 -0.001  -0.002   0.000  -0.001   4.183   0.000  -0.002   7.795
  0.009   0.013   7.795   0.000   0.000  14.536   0.000   0.001
 -0.003  -0.004   0.000   7.795  -0.002   0.000  14.537  -0.004
 -0.002  -0.003   0.000  -0.002   7.795   0.001  -0.004  14.537
 total augmentation occupancy for first ion, spin component:           1
  5.687  -2.151   0.362  -0.076  -0.047  -0.116   0.022   0.013
 -2.151   0.935  -0.181   0.040   0.025   0.056  -0.011  -0.007
  0.362  -0.181   2.971   0.128   0.149  -0.678  -0.040  -0.046
 -0.076   0.040   0.128   3.057  -0.433  -0.040  -0.706   0.135
 -0.047   0.025   0.149  -0.433   3.061  -0.046   0.135  -0.707
 -0.116   0.056  -0.678  -0.040  -0.046   0.163   0.012   0.014
  0.022  -0.011  -0.040  -0.706   0.135   0.012   0.172  -0.040
  0.013  -0.007  -0.046   0.135  -0.707   0.014  -0.040   0.172


------------------------ aborting loop because EDIFF is reached ----------------------------------------


    CHARGE:  cpu time    0.0156: real time    0.0223
    FORLOC:  cpu time    0.0156: real time    0.0005
    FORNL :  cpu time    0.1562: real time    0.1782
    STRESS:  cpu time    0.5625: real time    0.5679
    FORCOR:  cpu time    0.0156: real time    0.0128
    FORHAR:  cpu time    0.0000: real time    0.0033
    MIXING:  cpu time    0.0000: real time    0.0006
    OFIELD:  cpu time    0.0000: real time    0.0000

  FORCE on cell =-STRESS in cart. coord.  units (eV):
  Direction    XX          YY          ZZ          XY          YZ          ZX
  --------------------------------------------------------------------------------------
  Alpha Z     3.29318     3.29318     3.29318
  Ewald     -74.51887   -77.26371   -74.61859     5.51351     4.77855   -15.69547
  Hartree     5.10370     4.92747     5.09776     0.67345     0.59080    -1.89870
  E(xc)     -25.26700   -25.24064   -25.26554    -0.04584    -0.03917     0.12673
  Local     -30.66997   -28.09548   -30.56591    -6.06064    -5.30228    16.83404
  n-local    78.07900    77.48571    78.04678     1.10566     0.94412    -3.13745
  augment   -11.70487   -11.68212   -11.70325    -0.05879    -0.05163     0.16027
  Kinetic    56.27099    56.38089    56.27923    -0.65698    -0.57019     1.58823
  Fock        0.00000     0.00000     0.00000     0.00000     0.00000     0.00000
  -------------------------------------------------------------------------------------
  Total       0.58617    -0.19471     0.56366     0.47038     0.35019    -2.02235
  in kB      22.96863    -7.62945    22.08657    18.43148    13.72209   -79.24434
  external pressure =       12.48 kB  Pullay stress =        0.00 kB


 VOLUME and BASIS-vectors are now :
 -----------------------------------------------------------------------------
  energy-cutoff  :      300.00
  volume of cell :       40.89
      direct lattice vectors                 reciprocal lattice vectors
     0.000000000  2.734364000  2.734364000    -0.182857878  0.182857878  0.182857878
     2.734364000  0.000000000  2.734364000     0.182857878 -0.182857878  0.182857878
     2.734364000  2.734364000  0.000000000     0.182857878  0.182857878 -0.182857878

  length of vectors
     3.866974653  3.866974653  3.866974653     0.316719136  0.316719136  0.316719136


 FORCES acting on ions
    electron-ion (+dipol)            ewald-force                    non-local-force                 convergence-correction
 -----------------------------------------------------------------------------------------------
   -.329E+00 0.464E+01 -.723E+00   0.448E+00 -.435E+01 0.809E+00   0.222E+00 -.257E+01 0.432E+00   0.120E-03 0.332E-03 -.176E-04
   0.329E+00 -.464E+01 0.723E+00   -.448E+00 0.435E+01 -.809E+00   -.222E+00 0.257E+01 -.432E+00   -.120E-03 -.332E-03 0.176E-04
 -----------------------------------------------------------------------------------------------
   0.895E-07 0.109E-06 -.926E-07   0.222E-15 0.000E+00 0.000E+00   0.000E+00 -.444E-15 0.000E+00   -.307E-09 0.419E-09 -.176E-09


 POSITION                                       TOTAL-FORCE (eV/Angst)
 -----------------------------------------------------------------------------------
      3.65655      4.21866      3.99391         0.340794     -2.280984      0.518263
      2.35905      2.64459      2.70528        -0.340794      2.280984     -0.518263
 -----------------------------------------------------------------------------------
    total drift:                                0.000000      0.000000     -0.000000


--------------------------------------------------------------------------------------------------------



  FREE ENERGIE OF THE ION-ELECTRON SYSTEM (eV)
  ---------------------------------------------------
  free  energy   TOTEN  =       -10.53682957 eV

  energy  without entropy=      -10.53623275  energy(sigma->0) =      -10.53653116

 d Force = 0.1819167E+01[ 0.107E+01, 0.257E+01]  d Energy = 0.2054134E+01-0.235E+00
 d Force = 0.3691711E+01[ 0.205E+01, 0.534E+01]  d Ewald  = 0.4076135E+01-0.384E+00


--------------------------------------------------------------------------------------------------------


    POTLOK:  cpu time    0.0938: real time    0.0830


--------------------------------------------------------------------------------------------------------


 Quasi-Newton relaxation of ions (Broydens 2nd method)
  g(Force)  = 0.539E+00   g(Stress)= 0.000E+00

 retain information from N=  2 steps
 eigenvalues of (default step * inverse Hessian matrix)
  average eigenvalue of G=   0.5221
 eigenvalue spectrum of G is  0.5221  0.5221


--------------------------------------------------------------------------------------------------------


     LOOP+:  cpu time    5.3594: real time    5.3774
    4ORBIT:  cpu time    0.0000: real time    0.0000

 total amount of memory used by VASP MPI-rank0    35065. kBytes
=======================================================================

   base      :      30000. kBytes
   nonlr-proj:        314. kBytes
   fftplans  :       1065. kBytes
   grid      :       1504. kBytes
   one-center:          3. kBytes
   wavefun   :       2179. kBytes

  
  
 General timing and accounting informations for this job:
 ========================================================
  
                  Total CPU time used (sec):       30.625
                            User time (sec):       30.281
                          System time (sec):        0.344
                         Elapsed time (sec):       30.523
  
                   Maximum memory used (kb):       52212.
                   Average memory used (kb):           0.
  
                          Minor page faults:        14343
                          Major page faults:            0
                 Voluntary context switches:            0
