 vasp.5.4.4.18Apr17-6-g9f103f2a35 (build Apr  9 2020 10:35:27) complex           
 executed on             LinuxGNU date 2021.04.04  17:44:06
 running on    4 total cores
 distrk:  each k-point on    4 cores,    1 groups
 distr:  one band on NCORES_PER_BAND=   4 cores,    1 groups


--------------------------------------------------------------------------------------------------------


 INCAR:
 POTCAR:    PAW_PBE Si 05Jan2001                  
 POTCAR:    PAW_PBE Si 05Jan2001                  
   VRHFIN =Si: s2p2                                                             
   LEXCH  = PE                                                                  
   EATOM  =   103.0669 eV,    7.5752 Ry                                         
                                                                                
   TITEL  = PAW_PBE Si 05Jan2001                                                
   LULTRA =        F    use ultrasoft PP ?                                      
   IUNSCR =        1    unscreen: 0-lin 1-nonlin 2-no                           
   RPACOR =    1.500    partial core radius                                     
   POMASS =   28.085; ZVAL   =    4.000    mass and valenz                      
   RCORE  =    1.900    outmost cutoff radius                                   
   RWIGS  =    2.480; RWIGS  =    1.312    wigner-seitz radius (au A)           
   ENMAX  =  245.345; ENMIN  =  184.009 eV                                      
   ICORE  =        2    local potential                                         
   LCOR   =        T    correct aug charges                                     
   LPAW   =        T    paw PP                                                  
   EAUG   =  322.069                                                            
   DEXC   =    0.000                                                            
   RMAX   =    1.950    core radius for proj-oper                               
   RAUG   =    1.300    factor for augmentation sphere                          
   RDEP   =    1.993    radius for radial grids                                 
   RDEPT  =    1.837    core radius for aug-charge                              
                                                                                
   Atomic configuration                                                         
    6 entries                                                                   
     n  l   j            E        occ.                                          
     1  0  0.50     -1785.8828   2.0000                                         
     2  0  0.50      -139.4969   2.0000                                         
     2  1  1.50       -95.5546   6.0000                                         
     3  0  0.50       -10.8127   2.0000                                         
     3  1  0.50        -4.0811   2.0000                                         
     3  2  1.50        -4.0817   0.0000                                         
   Description                                                                  
     l       E           TYP  RCUT    TYP  RCUT                                 
     0    -10.8127223     23  1.900                                             
     0     -7.6451159     23  1.900                                             
     1     -4.0811372     23  1.900                                             
     1      2.4879257     23  1.900                                             
     2     -4.0817478      7  1.900                                             
  local pseudopotential read in
  partial core-charges read in
  partial kinetic energy density read in
  atomic valenz-charges read in
  non local Contribution for L=           0  read in
    real space projection operators read in
  non local Contribution for L=           0  read in
    real space projection operators read in
  non local Contribution for L=           1  read in
    real space projection operators read in
  non local Contribution for L=           1  read in
    real space projection operators read in
    PAW grid and wavefunctions read in

   number of l-projection  operators is LMAX  =           4
   number of lm-projection operators is LMMAX =           8


 ----------------------------------------------------------------------------- 
|                                                                             |
|  ADVICE TO THIS USER RUNNING 'VASP/VAMP'   (HEAR YOUR MASTER'S VOICE ...):  |
|                                                                             |
|      You have a (more or less) 'small supercell' and for smaller cells      |
|      it is recommended  to use the reciprocal-space projection scheme!      |
|      The real space optimization is not  efficient for small cells and it   |
|      is also less accurate ...                                              |
|      Therefore set LREAL=.FALSE. in the  INCAR file                         |
|                                                                             |
 ----------------------------------------------------------------------------- 

 Optimization of the real space projectors (new method)

 maximal supplied QI-value         = 19.84
 optimisation between [QCUT,QGAM] = [  8.73, 17.66] = [ 21.34, 87.33] Ry 
 Optimized for a Real-space Cutoff    1.46 Angstroem

   l    n(q)    QCUT    max X(q) W(low)/X(q) W(high)/X(q)  e(spline) 
   0      8     8.731   159.560    0.25E-03    0.77E-04    0.13E-06
   0      8     8.731   115.863    0.24E-03    0.77E-04    0.13E-06
   1      7     8.731    88.339    0.12E-03    0.40E-03    0.15E-06
   1      7     8.731    48.592    0.12E-03    0.39E-03    0.15E-06
  PAW_PBE Si 05Jan2001                  :
 energy of atom  1       EATOM= -103.0669
 kinetic energy error for atom=    0.0021 (will be added to EATOM!!)


 POSCAR: generated by phonopy                    
  positions in direct lattice
  No initial velocities read in
 exchange correlation table for  LEXCH =        8
   RHO(1)=    0.500       N(1)  =     2000
   RHO(2)=  100.500       N(2)  =     4000



--------------------------------------------------------------------------------------------------------


 ion  position               nearest neighbor table
   1  0.780  0.770  0.730-   2 1.78   2 2.29   2 2.74   2 3.14
   2  0.600  0.300  0.400-   1 1.78   1 2.29   1 2.74   1 3.14

  LATTYP: Found a face centered cubic cell.
 ALAT       =     5.4687280000
  
  Lattice vectors:
  
 A1 = (   0.0000000000,   2.7343640000,   2.7343640000)
 A2 = (   2.7343640000,   0.0000000000,   2.7343640000)
 A3 = (   2.7343640000,   2.7343640000,   0.0000000000)


Analysis of symmetry for initial positions (statically):
=====================================================================
 Subroutine PRICEL returns:
 Original cell was already a primitive cell.
 

 Routine SETGRP: Setting up the symmetry group for a 
 face centered cubic supercell.


 Subroutine GETGRP returns: Found  2 space group operations
 (whereof  1 operations were pure point group operations)
 out of a pool of 48 trial point group operations.


The static configuration has the point symmetry C_1 .
 The point group associated with its full space group is S_2 .


Analysis of symmetry for dynamics (positions and initial velocities):
=====================================================================
 Subroutine PRICEL returns:
 Original cell was already a primitive cell.
 

 Routine SETGRP: Setting up the symmetry group for a 
 face centered cubic supercell.


 Subroutine GETGRP returns: Found  2 space group operations
 (whereof  1 operations were pure point group operations)
 out of a pool of 48 trial point group operations.


The dynamic configuration has the point symmetry C_1 .
 The point group associated with its full space group is S_2 .


 Subroutine INISYM returns: Found  2 space group operations
 (whereof  1 operations are pure point group operations),
 and found     1 'primitive' translations



 KPOINTS: pymatgen v2021.2.8.1 with grid density =

Automatic generation of k-mesh.
Space group operators:
 irot       det(A)        alpha          n_x          n_y          n_z        tau_x        tau_y        tau_z
    1     1.000000     0.000000     1.000000     0.000000     0.000000     0.000000     0.000000     0.000000
    2    -1.000000     0.000000     1.000000     0.000000     0.000000     0.380000     0.070000     0.130000
 
 Subroutine IBZKPT returns following result:
 ===========================================
 
 Found    128 irreducible k-points:
 
 Following reciprocal coordinates:
            Coordinates               Weight
  0.125000  0.125000  0.125000     24.000000
  0.125000  0.000000  0.000000     24.000000
  0.000000  0.000000 -0.125000     24.000000
  0.000000  0.125000  0.000000     24.000000
  0.375000  0.125000  0.125000     24.000000
  0.125000  0.375000  0.125000     24.000000
  0.125000  0.125000  0.375000     24.000000
  0.125000  0.000000 -0.250000     24.000000
  0.375000  0.250000  0.250000     24.000000
  0.125000 -0.250000  0.000000     24.000000
  0.000000  0.250000 -0.125000     24.000000
  0.250000  0.000000 -0.125000     24.000000
 -0.250000 -0.250000 -0.375000     24.000000
  0.250000  0.375000  0.250000     24.000000
  0.000000  0.125000 -0.250000     24.000000
 -0.250000  0.125000  0.000000     24.000000
 -0.375000  0.125000  0.125000     24.000000
  0.125000 -0.375000  0.125000     24.000000
  0.125000  0.125000 -0.375000     24.000000
  0.125000  0.000000  0.500000     24.000000
 -0.375000  0.500000  0.500000     24.000000
  0.125000  0.500000  0.000000     24.000000
  0.000000  0.500000 -0.125000     24.000000
  0.500000  0.000000 -0.125000     24.000000
  0.500000  0.500000  0.375000     24.000000
  0.500000 -0.375000  0.500000     24.000000
  0.000000  0.125000  0.500000     24.000000
  0.500000  0.125000  0.000000     24.000000
 -0.125000  0.125000  0.125000     24.000000
  0.125000 -0.125000  0.125000     24.000000
  0.125000  0.125000 -0.125000     24.000000
  0.125000  0.000000  0.250000     24.000000
 -0.125000 -0.250000 -0.250000     24.000000
  0.125000  0.250000  0.000000     24.000000
  0.000000 -0.250000 -0.125000     24.000000
 -0.250000  0.000000 -0.125000     24.000000
  0.250000  0.250000  0.125000     24.000000
 -0.250000 -0.125000 -0.250000     24.000000
  0.000000  0.125000  0.250000     24.000000
  0.250000  0.125000  0.000000     24.000000
  0.375000  0.375000  0.125000     24.000000
  0.125000  0.375000  0.375000     24.000000
  0.375000  0.125000  0.375000     24.000000
  0.375000  0.250000  0.000000     24.000000
  0.375000  0.000000  0.250000     24.000000
  0.125000 -0.250000 -0.250000     24.000000
  0.250000  0.250000 -0.125000     24.000000
  0.000000 -0.250000 -0.375000     24.000000
 -0.250000  0.000000 -0.375000     24.000000
  0.250000  0.375000  0.000000     24.000000
 -0.250000  0.125000 -0.250000     24.000000
  0.000000  0.375000  0.250000     24.000000
 -0.375000  0.375000  0.125000     24.000000
  0.125000 -0.375000  0.375000     24.000000
  0.375000  0.125000 -0.375000     24.000000
  0.375000  0.250000 -0.250000     24.000000
 -0.375000  0.250000  0.500000     24.000000
  0.125000  0.500000 -0.250000     24.000000
  0.250000  0.500000 -0.125000     24.000000
  0.250000 -0.250000 -0.375000     24.000000
  0.500000 -0.250000  0.375000     24.000000
  0.500000 -0.375000  0.250000     24.000000
 -0.250000  0.125000  0.500000     24.000000
 -0.250000  0.375000  0.250000     24.000000
 -0.125000  0.250000  0.500000     24.000000
 -0.375000  0.250000 -0.250000     24.000000
  0.375000  0.500000 -0.250000     24.000000
  0.250000  0.500000 -0.375000     24.000000
  0.500000 -0.250000  0.125000     24.000000
  0.250000 -0.250000  0.375000     24.000000
  0.500000 -0.125000  0.250000     24.000000
 -0.250000 -0.375000  0.250000     24.000000
 -0.250000  0.375000  0.500000     24.000000
  0.375000 -0.125000 -0.375000     24.000000
 -0.375000  0.375000 -0.125000     24.000000
 -0.125000 -0.375000  0.375000     24.000000
 -0.125000  0.375000  0.125000     24.000000
  0.125000 -0.125000  0.375000     24.000000
  0.375000  0.125000 -0.125000     24.000000
  0.375000  0.250000  0.500000     24.000000
 -0.125000  0.500000 -0.250000     24.000000
  0.125000  0.250000 -0.250000     24.000000
  0.250000 -0.250000 -0.125000     24.000000
  0.500000 -0.250000 -0.375000     24.000000
  0.250000  0.500000  0.125000     24.000000
 -0.250000 -0.125000  0.500000     24.000000
 -0.250000  0.125000  0.250000     24.000000
  0.500000  0.375000  0.250000     24.000000
 -0.125000  0.250000 -0.250000     24.000000
 -0.375000  0.500000 -0.250000     24.000000
  0.125000  0.250000  0.500000     24.000000
  0.500000 -0.250000 -0.125000     24.000000
  0.250000 -0.250000  0.125000     24.000000
  0.250000  0.500000  0.375000     24.000000
 -0.250000 -0.125000  0.250000     24.000000
 -0.250000 -0.375000  0.500000     24.000000
  0.500000  0.125000  0.250000     24.000000
  0.125000 -0.125000 -0.375000     24.000000
 -0.375000  0.125000 -0.125000     24.000000
 -0.125000 -0.375000  0.125000     24.000000
 -0.375000 -0.375000  0.125000     24.000000
  0.125000 -0.375000 -0.375000     24.000000
 -0.375000  0.125000 -0.375000     24.000000
 -0.375000  0.500000  0.000000     24.000000
 -0.375000  0.000000  0.500000     24.000000
  0.125000  0.500000  0.500000     24.000000
  0.500000  0.500000 -0.125000     24.000000
  0.000000  0.500000  0.375000     24.000000
  0.500000  0.000000  0.375000     24.000000
  0.500000 -0.375000  0.000000     24.000000
  0.500000  0.125000  0.500000     24.000000
  0.000000 -0.375000  0.500000     24.000000
  0.375000  0.375000  0.375000     24.000000
  0.375000  0.000000  0.000000     24.000000
  0.000000  0.000000 -0.375000     24.000000
  0.000000  0.375000  0.000000     24.000000
 -0.375000  0.375000  0.375000     24.000000
  0.375000 -0.375000  0.375000     24.000000
  0.375000  0.375000 -0.375000     24.000000
  0.375000  0.000000 -0.250000     24.000000
 -0.375000  0.250000  0.250000     24.000000
  0.375000 -0.250000  0.000000     24.000000
  0.000000  0.250000 -0.375000     24.000000
  0.250000  0.000000 -0.375000     24.000000
 -0.250000 -0.250000  0.375000     24.000000
  0.250000 -0.375000  0.250000     24.000000
  0.000000  0.375000 -0.250000     24.000000
 -0.250000  0.375000  0.000000     24.000000
 
 Following cartesian coordinates:
            Coordinates               Weight
  0.022857  0.022857  0.022857     24.000000
 -0.022857  0.022857  0.022857     24.000000
 -0.022857 -0.022857  0.022857     24.000000
  0.022857 -0.022857  0.022857     24.000000
 -0.022857  0.068572  0.068572     24.000000
  0.068572 -0.022857  0.068572     24.000000
  0.068572  0.068572 -0.022857     24.000000
 -0.068572 -0.022857  0.068572     24.000000
  0.022857  0.068572  0.068572     24.000000
 -0.068572  0.068572 -0.022857     24.000000
  0.022857 -0.068572  0.068572     24.000000
 -0.068572  0.022857  0.068572     24.000000
 -0.068572 -0.068572 -0.022857     24.000000
  0.068572  0.022857  0.068572     24.000000
 -0.022857 -0.068572  0.068572     24.000000
  0.068572 -0.068572 -0.022857     24.000000
  0.114286 -0.068572 -0.068572     24.000000
 -0.068572  0.114286 -0.068572     24.000000
 -0.068572 -0.068572  0.114286     24.000000
  0.068572  0.114286 -0.068572     24.000000
  0.251430 -0.068572 -0.068572     24.000000
  0.068572 -0.068572  0.114286     24.000000
  0.068572 -0.114286  0.114286     24.000000
 -0.114286  0.068572  0.114286     24.000000
  0.068572  0.068572  0.114286     24.000000
 -0.068572  0.251430 -0.068572     24.000000
  0.114286  0.068572 -0.068572     24.000000
 -0.068572  0.068572  0.114286     24.000000
  0.068572 -0.022857 -0.022857     24.000000
 -0.022857  0.068572 -0.022857     24.000000
 -0.022857 -0.022857  0.068572     24.000000
  0.022857  0.068572 -0.022857     24.000000
 -0.068572 -0.022857 -0.022857     24.000000
  0.022857 -0.022857  0.068572     24.000000
 -0.068572  0.022857 -0.022857     24.000000
  0.022857 -0.068572 -0.022857     24.000000
  0.022857  0.022857  0.068572     24.000000
 -0.022857 -0.068572 -0.022857     24.000000
  0.068572  0.022857 -0.022857     24.000000
 -0.022857  0.022857  0.068572     24.000000
  0.022857  0.022857  0.114286     24.000000
  0.114286  0.022857  0.022857     24.000000
  0.022857  0.114286  0.022857     24.000000
 -0.022857  0.022857  0.114286     24.000000
 -0.022857  0.114286  0.022857     24.000000
 -0.114286  0.022857  0.022857     24.000000
 -0.022857 -0.022857  0.114286     24.000000
 -0.114286 -0.022857  0.022857     24.000000
 -0.022857 -0.114286  0.022857     24.000000
  0.022857 -0.022857  0.114286     24.000000
  0.022857 -0.114286  0.022857     24.000000
  0.114286 -0.022857  0.022857     24.000000
  0.160001 -0.114286 -0.022857     24.000000
 -0.022857  0.160001 -0.114286     24.000000
 -0.114286 -0.022857  0.160001     24.000000
 -0.068572 -0.022857  0.160001     24.000000
  0.205715 -0.022857 -0.114286     24.000000
  0.022857 -0.114286  0.160001     24.000000
  0.022857 -0.068572  0.160001     24.000000
 -0.160001  0.022857  0.068572     24.000000
 -0.068572  0.205715 -0.022857     24.000000
 -0.114286  0.205715 -0.022857     24.000000
  0.160001  0.022857 -0.114286     24.000000
  0.160001 -0.068572 -0.022857     24.000000
  0.160001  0.022857 -0.068572     24.000000
  0.068572 -0.160001  0.022857     24.000000
 -0.022857 -0.068572  0.205715     24.000000
 -0.022857 -0.114286  0.205715     24.000000
 -0.114286  0.160001  0.022857     24.000000
 -0.022857  0.160001 -0.068572     24.000000
 -0.068572  0.160001  0.022857     24.000000
  0.022857  0.068572 -0.160001     24.000000
  0.205715 -0.022857 -0.068572     24.000000
 -0.160001  0.022857  0.114286     24.000000
  0.114286 -0.160001  0.022857     24.000000
  0.022857  0.114286 -0.160001     24.000000
  0.114286 -0.068572  0.022857     24.000000
  0.022857  0.114286 -0.068572     24.000000
 -0.068572  0.022857  0.114286     24.000000
  0.068572  0.114286  0.022857     24.000000
  0.068572 -0.160001  0.114286     24.000000
 -0.022857 -0.068572  0.114286     24.000000
 -0.114286  0.068572  0.022857     24.000000
 -0.205715  0.068572  0.114286     24.000000
  0.068572 -0.022857  0.114286     24.000000
  0.114286  0.068572 -0.160001     24.000000
  0.114286 -0.022857 -0.068572     24.000000
  0.022857  0.068572  0.114286     24.000000
  0.022857 -0.114286  0.068572     24.000000
  0.114286 -0.205715  0.068572     24.000000
  0.114286  0.068572 -0.022857     24.000000
 -0.160001  0.114286  0.068572     24.000000
 -0.068572  0.114286 -0.022857     24.000000
  0.114286  0.022857  0.068572     24.000000
  0.068572  0.022857 -0.114286     24.000000
  0.068572  0.114286 -0.205715     24.000000
 -0.022857  0.114286  0.068572     24.000000
 -0.114286 -0.022857  0.068572     24.000000
  0.068572 -0.114286 -0.022857     24.000000
 -0.022857  0.068572 -0.114286     24.000000
  0.022857  0.022857 -0.160001     24.000000
 -0.160001  0.022857  0.022857     24.000000
  0.022857 -0.160001  0.022857     24.000000
  0.160001 -0.160001  0.022857     24.000000
  0.160001  0.022857 -0.160001     24.000000
  0.160001  0.022857  0.022857     24.000000
 -0.022857 -0.022857  0.205715     24.000000
  0.160001 -0.022857  0.022857     24.000000
 -0.022857  0.160001  0.022857     24.000000
 -0.160001  0.160001  0.022857     24.000000
  0.022857  0.160001  0.022857     24.000000
  0.022857  0.160001 -0.160001     24.000000
  0.068572  0.068572  0.068572     24.000000
 -0.068572  0.068572  0.068572     24.000000
 -0.068572 -0.068572  0.068572     24.000000
  0.068572 -0.068572  0.068572     24.000000
  0.205715 -0.068572 -0.068572     24.000000
 -0.068572  0.205715 -0.068572     24.000000
 -0.068572 -0.068572  0.205715     24.000000
 -0.114286  0.022857  0.114286     24.000000
  0.160001 -0.068572 -0.068572     24.000000
 -0.114286  0.114286  0.022857     24.000000
 -0.022857 -0.114286  0.114286     24.000000
 -0.114286 -0.022857  0.114286     24.000000
  0.068572  0.068572 -0.160001     24.000000
 -0.068572  0.160001 -0.068572     24.000000
  0.022857 -0.114286  0.114286     24.000000
  0.114286 -0.114286  0.022857     24.000000
 


--------------------------------------------------------------------------------------------------------




 Dimension of arrays:
   k-points           NKPTS =    128   k-points in BZ     NKDIM =    128   number of bands    NBANDS=      8
   number of dos      NEDOS =    301   number of ions     NIONS =      2
   non local maximal  LDIM  =      4   non local SUM 2l+1 LMDIM =      8
   total plane-waves  NPLWV =  13824
   max r-space proj   IRMAX =   4446   max aug-charges    IRDMAX=  11502
   dimension x,y,z NGX =    24 NGY =   24 NGZ =   24
   dimension x,y,z NGXF=    48 NGYF=   48 NGZF=   48
   support grid    NGXF=    48 NGYF=   48 NGZF=   48
   ions per type =               2
   NGX,Y,Z   is equivalent  to a cutoff of  10.32, 10.32, 10.32 a.u.
   NGXF,Y,Z  is equivalent  to a cutoff of  20.64, 20.64, 20.64 a.u.

 SYSTEM =  unknown system                          
 POSCAR =  generated by phonopy                    

 Startparameter for this run:
   NWRITE =      2    write-flag & timer
   PREC   = accura    normal or accurate (medium, high low for compatibility)
   ISTART =      0    job   : 0-new  1-cont  2-samecut
   ICHARG =      2    charge: 1-file 2-atom 10-const
   ISPIN  =      1    spin polarized calculation?
   LNONCOLLINEAR =      F non collinear calculations
   LSORBIT =      F    spin-orbit coupling
   INIWAV =      1    electr: 0-lowe 1-rand  2-diag
   LASPH  =      T    aspherical Exc in radial PAW
   METAGGA=      F    non-selfconsistent MetaGGA calc.

 Electronic Relaxation 1
   ENCUT  =  300.0 eV  22.05 Ry    4.70 a.u.   5.46  5.46  5.46*2*pi/ulx,y,z
   ENINI  =  300.0     initial cutoff
   ENAUG  =  322.1 eV  augmentation charge cutoff
   NELM   =      6;   NELMIN=  2; NELMDL=  0     # of ELM steps 
   EDIFF  = 0.1E-05   stopping-criterion for ELM
   LREAL  =      T    real-space projection
   NLSPLINE    = F    spline interpolate recip. space projectors
   LCOMPAT=      F    compatible to vasp.4.4
   GGA_COMPAT  = T    GGA compatible to vasp.4.4-vasp.4.6
   LMAXPAW     = -100 max onsite density
   LMAXMIX     =    2 max onsite mixed and CHGCAR
   VOSKOWN=      0    Vosko Wilk Nusair interpolation
   ROPT   =   -0.00025
 Ionic relaxation
   EDIFFG = 0.5E-01   stopping-criterion for IOM
   NSW    =      5    number of steps for IOM
   NBLOCK =      1;   KBLOCK =      5    inner block; outer block 
   IBRION =      1    ionic relax: 0-MD 1-quasi-New 2-CG
   NFREE  =      0    steps in history (QN), initial steepest desc. (CG)
   ISIF   =      2    stress and relaxation
   IWAVPR =     11    prediction:  0-non 1-charg 2-wave 3-comb
   ISYM   =      2    0-nonsym 1-usesym 2-fastsym
   LCORR  =      T    Harris-Foulkes like correction to forces

   POTIM  = 0.5000    time-step for ionic-motion
   TEIN   =    0.0    initial temperature
   TEBEG  =    0.0;   TEEND  =   0.0 temperature during run
   SMASS  =  -3.00    Nose mass-parameter (am)
   estimated Nose-frequenzy (Omega)   =  0.10E-29 period in steps =****** mass=  -0.342E-27a.u.
   SCALEE = 1.0000    scale energy and forces
   NPACO  =    256;   APACO  = 16.0  distance and # of slots for P.C.
   PSTRESS=    0.0 pullay stress

  Mass of Ions in am
   POMASS =  28.09
  Ionic Valenz
   ZVAL   =   4.00
  Atomic Wigner-Seitz radii
   RWIGS  =  -1.00
  virtual crystal weights 
   VCA    =   1.00
   NELECT =       8.0000    total number of electrons
   NUPDOWN=      -1.0000    fix difference up-down

 DOS related values:
   EMIN   =  10.00;   EMAX   =-10.00  energy-range for DOS
   EFERMI =   0.00
   ISMEAR =     0;   SIGMA  =   0.05  broadening in eV -4-tet -1-fermi 0-gaus

 Electronic relaxation 2 (details)
   IALGO  =     68    algorithm
   LDIAG  =      T    sub-space diagonalisation (order eigenvalues)
   LSUBROT=      F    optimize rotation matrix (better conditioning)
   TURBO    =      0    0=normal 1=particle mesh
   IRESTART =      0    0=no restart 2=restart with 2 vectors
   NREBOOT  =      0    no. of reboots
   NMIN     =      0    reboot dimension
   EREF     =   0.00    reference energy to select bands
   IMIX   =      4    mixing-type and parameters
     AMIX     =   0.40;   BMIX     =  1.00
     AMIX_MAG =   1.60;   BMIX_MAG =  1.00
     AMIN     =   0.10
     WC   =   100.;   INIMIX=   1;  MIXPRE=   1;  MAXMIX= -45

 Intra band minimization:
   WEIMIN = 0.0010     energy-eigenvalue tresh-hold
   EBREAK =  0.31E-07  absolut break condition
   DEPER  =   0.30     relativ break condition  

   TIME   =   0.40     timestep for ELM

  volume/ion in A,a.u.               =      20.44       137.96
  Fermi-wavevector in a.u.,A,eV,Ry     =   0.950397  1.795990 12.289529  0.903255
  Thomas-Fermi vector in A             =   2.078770

 Write flags
   LWAVE        =      F    write WAVECAR
   LDOWNSAMPLE  =      F    k-point downsampling of WAVECAR
   LCHARG       =      T    write CHGCAR
   LVTOT        =      F    write LOCPOT, total local potential
   LVHAR        =      F    write LOCPOT, Hartree potential only
   LELF         =      F    write electronic localiz. function (ELF)
   LORBIT       =      0    0 simple, 1 ext, 2 COOP (PROOUT), +10 PAW based schemes


 Dipole corrections
   LMONO  =      F    monopole corrections only (constant potential shift)
   LDIPOL =      F    correct potential (dipole corrections)
   IDIPOL =      0    1-x, 2-y, 3-z, 4-all directions 
   EPSILON=  1.0000000 bulk dielectric constant

 Exchange correlation treatment:
   GGA     =    --    GGA type
   LEXCH   =     8    internal setting for exchange type
   VOSKOWN=      0    Vosko Wilk Nusair interpolation
   LHFCALC =     F    Hartree Fock is set to
   LHFONE  =     F    Hartree Fock one center treatment
   AEXX    =    0.0000 exact exchange contribution

 Linear response parameters
   LEPSILON=     F    determine dielectric tensor
   LRPA    =     F    only Hartree local field effects (RPA)
   LNABLA  =     F    use nabla operator in PAW spheres
   LVEL    =     F    velocity operator in full k-point grid
   LINTERFAST=   F  fast interpolation
   KINTER  =     0    interpolate to denser k-point grid
   CSHIFT  =0.1000    complex shift for real part using Kramers Kronig
   OMEGAMAX=  -1.0    maximum frequency
   DEG_THRESHOLD= 0.2000000E-02 threshold for treating states as degnerate
   RTIME   =   -0.100 relaxation time in fs
  (WPLASMAI=    0.000 imaginary part of plasma frequency in eV, 0.658/RTIME)
   DFIELD  = 0.0000000 0.0000000 0.0000000 field for delta impulse in time

 Orbital magnetization related:
   ORBITALMAG=     F  switch on orbital magnetization
   LCHIMAG   =     F  perturbation theory with respect to B field
   DQ        =  0.001000  dq finite difference perturbation B field
   LLRAUG    =     F  two centre corrections for induced B field



--------------------------------------------------------------------------------------------------------


 quasi-Newton-method for relaxation of ions
 charge density and potential will be updated during run
 non-spin polarized calculation
 RMM-DIIS sequential band-by-band and
  variant of blocked Davidson during initial phase
 perform sub-space diagonalisation
    before iterative eigenvector-optimisation
 modified Broyden-mixing scheme, WC =      100.0
 initial mixing is a Kerker type mixing with AMIX =  0.4000 and BMIX =      1.0000
 Hartree-type preconditioning will be used
 using additional bands            4
 real space projection scheme for non local part
 use partial core corrections
 calculate Harris-corrections to forces   (improved forces if not selfconsistent)
 use gradient corrections 
 use of overlap-Matrix (Vanderbilt PP)
 Gauss-broadening in eV      SIGMA  =   0.05


--------------------------------------------------------------------------------------------------------


  energy-cutoff  :      300.00
  volume of cell :       40.89
      direct lattice vectors                 reciprocal lattice vectors
     0.000000000  2.734364000  2.734364000    -0.182857878  0.182857878  0.182857878
     2.734364000  0.000000000  2.734364000     0.182857878 -0.182857878  0.182857878
     2.734364000  2.734364000  0.000000000     0.182857878  0.182857878 -0.182857878

  length of vectors
     3.866974653  3.866974653  3.866974653     0.316719136  0.316719136  0.316719136



 k-points in units of 2pi/SCALE and weight: pymatgen v2021.2.8.1 with grid density =
   0.02285723  0.02285723  0.02285723       0.008
  -0.02285723  0.02285723  0.02285723       0.008
  -0.02285723 -0.02285723  0.02285723       0.008
   0.02285723 -0.02285723  0.02285723       0.008
  -0.02285723  0.06857170  0.06857170       0.008
   0.06857170 -0.02285723  0.06857170       0.008
   0.06857170  0.06857170 -0.02285723       0.008
  -0.06857170 -0.02285723  0.06857170       0.008
   0.02285723  0.06857170  0.06857170       0.008
  -0.06857170  0.06857170 -0.02285723       0.008
   0.02285723 -0.06857170  0.06857170       0.008
  -0.06857170  0.02285723  0.06857170       0.008
  -0.06857170 -0.06857170 -0.02285723       0.008
   0.06857170  0.02285723  0.06857170       0.008
  -0.02285723 -0.06857170  0.06857170       0.008
   0.06857170 -0.06857170 -0.02285723       0.008
   0.11428617 -0.06857170 -0.06857170       0.008
  -0.06857170  0.11428617 -0.06857170       0.008
  -0.06857170 -0.06857170  0.11428617       0.008
   0.06857170  0.11428617 -0.06857170       0.008
   0.25142958 -0.06857170 -0.06857170       0.008
   0.06857170 -0.06857170  0.11428617       0.008
   0.06857170 -0.11428617  0.11428617       0.008
  -0.11428617  0.06857170  0.11428617       0.008
   0.06857170  0.06857170  0.11428617       0.008
  -0.06857170  0.25142958 -0.06857170       0.008
   0.11428617  0.06857170 -0.06857170       0.008
  -0.06857170  0.06857170  0.11428617       0.008
   0.06857170 -0.02285723 -0.02285723       0.008
  -0.02285723  0.06857170 -0.02285723       0.008
  -0.02285723 -0.02285723  0.06857170       0.008
   0.02285723  0.06857170 -0.02285723       0.008
  -0.06857170 -0.02285723 -0.02285723       0.008
   0.02285723 -0.02285723  0.06857170       0.008
  -0.06857170  0.02285723 -0.02285723       0.008
   0.02285723 -0.06857170 -0.02285723       0.008
   0.02285723  0.02285723  0.06857170       0.008
  -0.02285723 -0.06857170 -0.02285723       0.008
   0.06857170  0.02285723 -0.02285723       0.008
  -0.02285723  0.02285723  0.06857170       0.008
   0.02285723  0.02285723  0.11428617       0.008
   0.11428617  0.02285723  0.02285723       0.008
   0.02285723  0.11428617  0.02285723       0.008
  -0.02285723  0.02285723  0.11428617       0.008
  -0.02285723  0.11428617  0.02285723       0.008
  -0.11428617  0.02285723  0.02285723       0.008
  -0.02285723 -0.02285723  0.11428617       0.008
  -0.11428617 -0.02285723  0.02285723       0.008
  -0.02285723 -0.11428617  0.02285723       0.008
   0.02285723 -0.02285723  0.11428617       0.008
   0.02285723 -0.11428617  0.02285723       0.008
   0.11428617 -0.02285723  0.02285723       0.008
   0.16000064 -0.11428617 -0.02285723       0.008
  -0.02285723  0.16000064 -0.11428617       0.008
  -0.11428617 -0.02285723  0.16000064       0.008
  -0.06857170 -0.02285723  0.16000064       0.008
   0.20571511 -0.02285723 -0.11428617       0.008
   0.02285723 -0.11428617  0.16000064       0.008
   0.02285723 -0.06857170  0.16000064       0.008
  -0.16000064  0.02285723  0.06857170       0.008
  -0.06857170  0.20571511 -0.02285723       0.008
  -0.11428617  0.20571511 -0.02285723       0.008
   0.16000064  0.02285723 -0.11428617       0.008
   0.16000064 -0.06857170 -0.02285723       0.008
   0.16000064  0.02285723 -0.06857170       0.008
   0.06857170 -0.16000064  0.02285723       0.008
  -0.02285723 -0.06857170  0.20571511       0.008
  -0.02285723 -0.11428617  0.20571511       0.008
  -0.11428617  0.16000064  0.02285723       0.008
  -0.02285723  0.16000064 -0.06857170       0.008
  -0.06857170  0.16000064  0.02285723       0.008
   0.02285723  0.06857170 -0.16000064       0.008
   0.20571511 -0.02285723 -0.06857170       0.008
  -0.16000064  0.02285723  0.11428617       0.008
   0.11428617 -0.16000064  0.02285723       0.008
   0.02285723  0.11428617 -0.16000064       0.008
   0.11428617 -0.06857170  0.02285723       0.008
   0.02285723  0.11428617 -0.06857170       0.008
  -0.06857170  0.02285723  0.11428617       0.008
   0.06857170  0.11428617  0.02285723       0.008
   0.06857170 -0.16000064  0.11428617       0.008
  -0.02285723 -0.06857170  0.11428617       0.008
  -0.11428617  0.06857170  0.02285723       0.008
  -0.20571511  0.06857170  0.11428617       0.008
   0.06857170 -0.02285723  0.11428617       0.008
   0.11428617  0.06857170 -0.16000064       0.008
   0.11428617 -0.02285723 -0.06857170       0.008
   0.02285723  0.06857170  0.11428617       0.008
   0.02285723 -0.11428617  0.06857170       0.008
   0.11428617 -0.20571511  0.06857170       0.008
   0.11428617  0.06857170 -0.02285723       0.008
  -0.16000064  0.11428617  0.06857170       0.008
  -0.06857170  0.11428617 -0.02285723       0.008
   0.11428617  0.02285723  0.06857170       0.008
   0.06857170  0.02285723 -0.11428617       0.008
   0.06857170  0.11428617 -0.20571511       0.008
  -0.02285723  0.11428617  0.06857170       0.008
  -0.11428617 -0.02285723  0.06857170       0.008
   0.06857170 -0.11428617 -0.02285723       0.008
  -0.02285723  0.06857170 -0.11428617       0.008
   0.02285723  0.02285723 -0.16000064       0.008
  -0.16000064  0.02285723  0.02285723       0.008
   0.02285723 -0.16000064  0.02285723       0.008
   0.16000064 -0.16000064  0.02285723       0.008
   0.16000064  0.02285723 -0.16000064       0.008
   0.16000064  0.02285723  0.02285723       0.008
  -0.02285723 -0.02285723  0.20571511       0.008
   0.16000064 -0.02285723  0.02285723       0.008
  -0.02285723  0.16000064  0.02285723       0.008
  -0.16000064  0.16000064  0.02285723       0.008
   0.02285723  0.16000064  0.02285723       0.008
   0.02285723  0.16000064 -0.16000064       0.008
   0.06857170  0.06857170  0.06857170       0.008
  -0.06857170  0.06857170  0.06857170       0.008
  -0.06857170 -0.06857170  0.06857170       0.008
   0.06857170 -0.06857170  0.06857170       0.008
   0.20571511 -0.06857170 -0.06857170       0.008
  -0.06857170  0.20571511 -0.06857170       0.008
  -0.06857170 -0.06857170  0.20571511       0.008
  -0.11428617  0.02285723  0.11428617       0.008
   0.16000064 -0.06857170 -0.06857170       0.008
  -0.11428617  0.11428617  0.02285723       0.008
  -0.02285723 -0.11428617  0.11428617       0.008
  -0.11428617 -0.02285723  0.11428617       0.008
   0.06857170  0.06857170 -0.16000064       0.008
  -0.06857170  0.16000064 -0.06857170       0.008
   0.02285723 -0.11428617  0.11428617       0.008
   0.11428617 -0.11428617  0.02285723       0.008

 k-points in reciprocal lattice and weights: pymatgen v2021.2.8.1 with grid density =
   0.12500000  0.12500000  0.12500000       0.008
   0.12500000  0.00000000  0.00000000       0.008
   0.00000000  0.00000000 -0.12500000       0.008
   0.00000000  0.12500000  0.00000000       0.008
   0.37500000  0.12500000  0.12500000       0.008
   0.12500000  0.37500000  0.12500000       0.008
   0.12500000  0.12500000  0.37500000       0.008
   0.12500000  0.00000000 -0.25000000       0.008
   0.37500000  0.25000000  0.25000000       0.008
   0.12500000 -0.25000000  0.00000000       0.008
   0.00000000  0.25000000 -0.12500000       0.008
   0.25000000  0.00000000 -0.12500000       0.008
  -0.25000000 -0.25000000 -0.37500000       0.008
   0.25000000  0.37500000  0.25000000       0.008
   0.00000000  0.12500000 -0.25000000       0.008
  -0.25000000  0.12500000  0.00000000       0.008
  -0.37500000  0.12500000  0.12500000       0.008
   0.12500000 -0.37500000  0.12500000       0.008
   0.12500000  0.12500000 -0.37500000       0.008
   0.12500000  0.00000000  0.50000000       0.008
  -0.37500000  0.50000000  0.50000000       0.008
   0.12500000  0.50000000  0.00000000       0.008
   0.00000000  0.50000000 -0.12500000       0.008
   0.50000000  0.00000000 -0.12500000       0.008
   0.50000000  0.50000000  0.37500000       0.008
   0.50000000 -0.37500000  0.50000000       0.008
   0.00000000  0.12500000  0.50000000       0.008
   0.50000000  0.12500000  0.00000000       0.008
  -0.12500000  0.12500000  0.12500000       0.008
   0.12500000 -0.12500000  0.12500000       0.008
   0.12500000  0.12500000 -0.12500000       0.008
   0.12500000  0.00000000  0.25000000       0.008
  -0.12500000 -0.25000000 -0.25000000       0.008
   0.12500000  0.25000000  0.00000000       0.008
   0.00000000 -0.25000000 -0.12500000       0.008
  -0.25000000  0.00000000 -0.12500000       0.008
   0.25000000  0.25000000  0.12500000       0.008
  -0.25000000 -0.12500000 -0.25000000       0.008
   0.00000000  0.12500000  0.25000000       0.008
   0.25000000  0.12500000  0.00000000       0.008
   0.37500000  0.37500000  0.12500000       0.008
   0.12500000  0.37500000  0.37500000       0.008
   0.37500000  0.12500000  0.37500000       0.008
   0.37500000  0.25000000  0.00000000       0.008
   0.37500000  0.00000000  0.25000000       0.008
   0.12500000 -0.25000000 -0.25000000       0.008
   0.25000000  0.25000000 -0.12500000       0.008
   0.00000000 -0.25000000 -0.37500000       0.008
  -0.25000000  0.00000000 -0.37500000       0.008
   0.25000000  0.37500000  0.00000000       0.008
  -0.25000000  0.12500000 -0.25000000       0.008
   0.00000000  0.37500000  0.25000000       0.008
  -0.37500000  0.37500000  0.12500000       0.008
   0.12500000 -0.37500000  0.37500000       0.008
   0.37500000  0.12500000 -0.37500000       0.008
   0.37500000  0.25000000 -0.25000000       0.008
  -0.37500000  0.25000000  0.50000000       0.008
   0.12500000  0.50000000 -0.25000000       0.008
   0.25000000  0.50000000 -0.12500000       0.008
   0.25000000 -0.25000000 -0.37500000       0.008
   0.50000000 -0.25000000  0.37500000       0.008
   0.50000000 -0.37500000  0.25000000       0.008
  -0.25000000  0.12500000  0.50000000       0.008
  -0.25000000  0.37500000  0.25000000       0.008
  -0.12500000  0.25000000  0.50000000       0.008
  -0.37500000  0.25000000 -0.25000000       0.008
   0.37500000  0.50000000 -0.25000000       0.008
   0.25000000  0.50000000 -0.37500000       0.008
   0.50000000 -0.25000000  0.12500000       0.008
   0.25000000 -0.25000000  0.37500000       0.008
   0.50000000 -0.12500000  0.25000000       0.008
  -0.25000000 -0.37500000  0.25000000       0.008
  -0.25000000  0.37500000  0.50000000       0.008
   0.37500000 -0.12500000 -0.37500000       0.008
  -0.37500000  0.37500000 -0.12500000       0.008
  -0.12500000 -0.37500000  0.37500000       0.008
  -0.12500000  0.37500000  0.12500000       0.008
   0.12500000 -0.12500000  0.37500000       0.008
   0.37500000  0.12500000 -0.12500000       0.008
   0.37500000  0.25000000  0.50000000       0.008
  -0.12500000  0.50000000 -0.25000000       0.008
   0.12500000  0.25000000 -0.25000000       0.008
   0.25000000 -0.25000000 -0.12500000       0.008
   0.50000000 -0.25000000 -0.37500000       0.008
   0.25000000  0.50000000  0.12500000       0.008
  -0.25000000 -0.12500000  0.50000000       0.008
  -0.25000000  0.12500000  0.25000000       0.008
   0.50000000  0.37500000  0.25000000       0.008
  -0.12500000  0.25000000 -0.25000000       0.008
  -0.37500000  0.50000000 -0.25000000       0.008
   0.12500000  0.25000000  0.50000000       0.008
   0.50000000 -0.25000000 -0.12500000       0.008
   0.25000000 -0.25000000  0.12500000       0.008
   0.25000000  0.50000000  0.37500000       0.008
  -0.25000000 -0.12500000  0.25000000       0.008
  -0.25000000 -0.37500000  0.50000000       0.008
   0.50000000  0.12500000  0.25000000       0.008
   0.12500000 -0.12500000 -0.37500000       0.008
  -0.37500000  0.12500000 -0.12500000       0.008
  -0.12500000 -0.37500000  0.12500000       0.008
  -0.37500000 -0.37500000  0.12500000       0.008
   0.12500000 -0.37500000 -0.37500000       0.008
  -0.37500000  0.12500000 -0.37500000       0.008
  -0.37500000  0.50000000  0.00000000       0.008
  -0.37500000  0.00000000  0.50000000       0.008
   0.12500000  0.50000000  0.50000000       0.008
   0.50000000  0.50000000 -0.12500000       0.008
   0.00000000  0.50000000  0.37500000       0.008
   0.50000000  0.00000000  0.37500000       0.008
   0.50000000 -0.37500000  0.00000000       0.008
   0.50000000  0.12500000  0.50000000       0.008
   0.00000000 -0.37500000  0.50000000       0.008
   0.37500000  0.37500000  0.37500000       0.008
   0.37500000  0.00000000  0.00000000       0.008
   0.00000000  0.00000000 -0.37500000       0.008
   0.00000000  0.37500000  0.00000000       0.008
  -0.37500000  0.37500000  0.37500000       0.008
   0.37500000 -0.37500000  0.37500000       0.008
   0.37500000  0.37500000 -0.37500000       0.008
   0.37500000  0.00000000 -0.25000000       0.008
  -0.37500000  0.25000000  0.25000000       0.008
   0.37500000 -0.25000000  0.00000000       0.008
   0.00000000  0.25000000 -0.37500000       0.008
   0.25000000  0.00000000 -0.37500000       0.008
  -0.25000000 -0.25000000  0.37500000       0.008
   0.25000000 -0.37500000  0.25000000       0.008
   0.00000000  0.37500000 -0.25000000       0.008
  -0.25000000  0.37500000  0.00000000       0.008

 position of ions in fractional coordinates (direct lattice) 
   0.78000000  0.77000000  0.73000000
   0.60000000  0.30000000  0.40000000

 position of ions in cartesian coordinates  (Angst):
   4.10154600  4.12888964  4.23826420
   1.91405480  2.73436400  2.46092760



--------------------------------------------------------------------------------------------------------


 k-point  1 :   0.1250 0.1250 0.1250  plane waves:     495
 k-point  2 :   0.1250 0.0000 0.0000  plane waves:     495
 k-point  3 :   0.0000 0.0000-0.1250  plane waves:     495
 k-point  4 :   0.0000 0.1250 0.0000  plane waves:     495
 k-point  5 :   0.3750 0.1250 0.1250  plane waves:     489
 k-point  6 :   0.1250 0.3750 0.1250  plane waves:     489
 k-point  7 :   0.1250 0.1250 0.3750  plane waves:     489
 k-point  8 :   0.1250 0.0000-0.2500  plane waves:     489
 k-point  9 :   0.3750 0.2500 0.2500  plane waves:     489
 k-point 10 :   0.1250-0.2500 0.0000  plane waves:     489
 k-point 11 :   0.0000 0.2500-0.1250  plane waves:     489
 k-point 12 :   0.2500 0.0000-0.1250  plane waves:     489
 k-point 13 :  -0.2500-0.2500-0.3750  plane waves:     489
 k-point 14 :   0.2500 0.3750 0.2500  plane waves:     489
 k-point 15 :   0.0000 0.1250-0.2500  plane waves:     489
 k-point 16 :  -0.2500 0.1250 0.0000  plane waves:     489
 k-point 17 :  -0.3750 0.1250 0.1250  plane waves:     475
 k-point 18 :   0.1250-0.3750 0.1250  plane waves:     475
 k-point 19 :   0.1250 0.1250-0.3750  plane waves:     475
 k-point 20 :   0.1250 0.0000 0.5000  plane waves:     475
 k-point 21 :  -0.3750 0.5000 0.5000  plane waves:     475
 k-point 22 :   0.1250 0.5000 0.0000  plane waves:     475
 k-point 23 :   0.0000 0.5000-0.1250  plane waves:     475
 k-point 24 :   0.5000 0.0000-0.1250  plane waves:     475
 k-point 25 :   0.5000 0.5000 0.3750  plane waves:     475
 k-point 26 :   0.5000-0.3750 0.5000  plane waves:     475
 k-point 27 :   0.0000 0.1250 0.5000  plane waves:     475
 k-point 28 :   0.5000 0.1250 0.0000  plane waves:     475
 k-point 29 :  -0.1250 0.1250 0.1250  plane waves:     489
 k-point 30 :   0.1250-0.1250 0.1250  plane waves:     489
 k-point 31 :   0.1250 0.1250-0.1250  plane waves:     489
 k-point 32 :   0.1250 0.0000 0.2500  plane waves:     489
 k-point 33 :  -0.1250-0.2500-0.2500  plane waves:     489
 k-point 34 :   0.1250 0.2500 0.0000  plane waves:     489
 k-point 35 :   0.0000-0.2500-0.1250  plane waves:     489
 k-point 36 :  -0.2500 0.0000-0.1250  plane waves:     489
 k-point 37 :   0.2500 0.2500 0.1250  plane waves:     489
 k-point 38 :  -0.2500-0.1250-0.2500  plane waves:     489
 k-point 39 :   0.0000 0.1250 0.2500  plane waves:     489
 k-point 40 :   0.2500 0.1250 0.0000  plane waves:     489
 k-point 41 :   0.3750 0.3750 0.1250  plane waves:     482
 k-point 42 :   0.1250 0.3750 0.3750  plane waves:     482
 k-point 43 :   0.3750 0.1250 0.3750  plane waves:     482
 k-point 44 :   0.3750 0.2500 0.0000  plane waves:     482
 k-point 45 :   0.3750 0.0000 0.2500  plane waves:     482
 k-point 46 :   0.1250-0.2500-0.2500  plane waves:     482
 k-point 47 :   0.2500 0.2500-0.1250  plane waves:     482
 k-point 48 :   0.0000-0.2500-0.3750  plane waves:     482
 k-point 49 :  -0.2500 0.0000-0.3750  plane waves:     482
 k-point 50 :   0.2500 0.3750 0.0000  plane waves:     482
 k-point 51 :  -0.2500 0.1250-0.2500  plane waves:     482
 k-point 52 :   0.0000 0.3750 0.2500  plane waves:     482
 k-point 53 :  -0.3750 0.3750 0.1250  plane waves:     479
 k-point 54 :   0.1250-0.3750 0.3750  plane waves:     479
 k-point 55 :   0.3750 0.1250-0.3750  plane waves:     479
 k-point 56 :   0.3750 0.2500-0.2500  plane waves:     479
 k-point 57 :  -0.3750 0.2500 0.5000  plane waves:     479
 k-point 58 :   0.1250 0.5000-0.2500  plane waves:     479
 k-point 59 :   0.2500 0.5000-0.1250  plane waves:     479
 k-point 60 :   0.2500-0.2500-0.3750  plane waves:     479
 k-point 61 :   0.5000-0.2500 0.3750  plane waves:     479
 k-point 62 :   0.5000-0.3750 0.2500  plane waves:     479
 k-point 63 :  -0.2500 0.1250 0.5000  plane waves:     479
 k-point 64 :  -0.2500 0.3750 0.2500  plane waves:     479
 k-point 65 :  -0.1250 0.2500 0.5000  plane waves:     479
 k-point 66 :  -0.3750 0.2500-0.2500  plane waves:     479
 k-point 67 :   0.3750 0.5000-0.2500  plane waves:     479
 k-point 68 :   0.2500 0.5000-0.3750  plane waves:     479
 k-point 69 :   0.5000-0.2500 0.1250  plane waves:     479
 k-point 70 :   0.2500-0.2500 0.3750  plane waves:     479
 k-point 71 :   0.5000-0.1250 0.2500  plane waves:     479
 k-point 72 :  -0.2500-0.3750 0.2500  plane waves:     479
 k-point 73 :  -0.2500 0.3750 0.5000  plane waves:     479
 k-point 74 :   0.3750-0.1250-0.3750  plane waves:     479
 k-point 75 :  -0.3750 0.3750-0.1250  plane waves:     479
 k-point 76 :  -0.1250-0.3750 0.3750  plane waves:     479
 k-point 77 :  -0.1250 0.3750 0.1250  plane waves:     482
 k-point 78 :   0.1250-0.1250 0.3750  plane waves:     482
 k-point 79 :   0.3750 0.1250-0.1250  plane waves:     482
 k-point 80 :   0.3750 0.2500 0.5000  plane waves:     482
 k-point 81 :  -0.1250 0.5000-0.2500  plane waves:     482
 k-point 82 :   0.1250 0.2500-0.2500  plane waves:     482
 k-point 83 :   0.2500-0.2500-0.1250  plane waves:     482
 k-point 84 :   0.5000-0.2500-0.3750  plane waves:     482
 k-point 85 :   0.2500 0.5000 0.1250  plane waves:     482
 k-point 86 :  -0.2500-0.1250 0.5000  plane waves:     482
 k-point 87 :  -0.2500 0.1250 0.2500  plane waves:     482
 k-point 88 :   0.5000 0.3750 0.2500  plane waves:     482
 k-point 89 :  -0.1250 0.2500-0.2500  plane waves:     482
 k-point 90 :  -0.3750 0.5000-0.2500  plane waves:     482
 k-point 91 :   0.1250 0.2500 0.5000  plane waves:     482
 k-point 92 :   0.5000-0.2500-0.1250  plane waves:     482
 k-point 93 :   0.2500-0.2500 0.1250  plane waves:     482
 k-point 94 :   0.2500 0.5000 0.3750  plane waves:     482
 k-point 95 :  -0.2500-0.1250 0.2500  plane waves:     482
 k-point 96 :  -0.2500-0.3750 0.5000  plane waves:     482
 k-point 97 :   0.5000 0.1250 0.2500  plane waves:     482
 k-point 98 :   0.1250-0.1250-0.3750  plane waves:     482
 k-point 99 :  -0.3750 0.1250-0.1250  plane waves:     482
 k-point ** :  -0.1250-0.3750 0.1250  plane waves:     482
 k-point ** :  -0.3750-0.3750 0.1250  plane waves:     476
 k-point ** :   0.1250-0.3750-0.3750  plane waves:     476
 k-point ** :  -0.3750 0.1250-0.3750  plane waves:     476
 k-point ** :  -0.3750 0.5000 0.0000  plane waves:     476
 k-point ** :  -0.3750 0.0000 0.5000  plane waves:     476
 k-point ** :   0.1250 0.5000 0.5000  plane waves:     476
 k-point ** :   0.5000 0.5000-0.1250  plane waves:     476
 k-point ** :   0.0000 0.5000 0.3750  plane waves:     476
 k-point ** :   0.5000 0.0000 0.3750  plane waves:     476
 k-point ** :   0.5000-0.3750 0.0000  plane waves:     476
 k-point ** :   0.5000 0.1250 0.5000  plane waves:     476
 k-point ** :   0.0000-0.3750 0.5000  plane waves:     476
 k-point ** :   0.3750 0.3750 0.3750  plane waves:     483
 k-point ** :   0.3750 0.0000 0.0000  plane waves:     483
 k-point ** :   0.0000 0.0000-0.3750  plane waves:     483
 k-point ** :   0.0000 0.3750 0.0000  plane waves:     483
 k-point ** :  -0.3750 0.3750 0.3750  plane waves:     481
 k-point ** :   0.3750-0.3750 0.3750  plane waves:     481
 k-point ** :   0.3750 0.3750-0.3750  plane waves:     481
 k-point ** :   0.3750 0.0000-0.2500  plane waves:     481
 k-point ** :  -0.3750 0.2500 0.2500  plane waves:     481
 k-point ** :   0.3750-0.2500 0.0000  plane waves:     481
 k-point ** :   0.0000 0.2500-0.3750  plane waves:     481
 k-point ** :   0.2500 0.0000-0.3750  plane waves:     481
 k-point ** :  -0.2500-0.2500 0.3750  plane waves:     481
 k-point ** :   0.2500-0.3750 0.2500  plane waves:     481
 k-point ** :   0.0000 0.3750-0.2500  plane waves:     481
 k-point ** :  -0.2500 0.3750 0.0000  plane waves:     481

 maximum and minimum number of plane-waves per node :       137      106

 maximum number of plane-waves:       495
 maximum index in each direction: 
   IXMAX=    5   IYMAX=    5   IZMAX=    5
   IXMIN=   -5   IYMIN=   -5   IZMIN=   -5


 real space projection operators:
  total allocation   :        534.88 KBytes
  max/ min on nodes  :        133.94        133.50


 parallel 3D FFT for wavefunctions:
    minimum data exchange during FFTs selected (reduces bandwidth)
 parallel 3D FFT for charge:
    minimum data exchange during FFTs selected (reduces bandwidth)


 total amount of memory used by VASP MPI-rank0    35065. kBytes
=======================================================================

   base      :      30000. kBytes
   nonlr-proj:        314. kBytes
   fftplans  :       1065. kBytes
   grid      :       1504. kBytes
   one-center:          3. kBytes
   wavefun   :       2179. kBytes

     INWAV:  cpu time    0.0000: real time    0.0001
 Broyden mixing: mesh for mixing (old mesh)
   NGX = 11   NGY = 11   NGZ = 11
  (NGX  = 48   NGY  = 48   NGZ  = 48)
  gives a total of   1331 points

 initial charge density was supplied:
 charge density of overlapping atoms calculated
 number of electron       8.0000000 magnetization 
 keeping initial charge density in first step


--------------------------------------------------------------------------------------------------------


 Maximum index for non-local projection operator         1070
 Maximum index for augmentation-charges         2741 (set IRDMAX)


--------------------------------------------------------------------------------------------------------


 First call to EWALD:  gamma=   0.514
 Maximum number of real-space cells 3x 3x 3
 Maximum number of reciprocal cells 3x 3x 3

    FEWALD:  cpu time    0.0000: real time    0.0005


--------------------------------------- Iteration      1(   1)  ---------------------------------------


    POTLOK:  cpu time    0.0156: real time    0.0133
    SETDIJ:  cpu time    0.0469: real time    0.0607
     EDDAV:  cpu time    0.4219: real time    0.4233
       DOS:  cpu time    0.0000: real time    0.0013
    --------------------------------------------
      LOOP:  cpu time    0.4844: real time    0.4986

 eigenvalue-minimisations  :  2056
 total energy-change (2. order) : 0.6422089E+01  (-0.2553182E+03)
 number of electron       8.0000000 magnetization 
 augmentation part        8.0000000 magnetization 

 Free energy of the ion-electron system (eV)
  ---------------------------------------------------
  alpha Z        PSCENC =         3.29318037
  Ewald energy   TEWEN  =      -218.56496444
  -Hartree energ DENC   =       -12.72510621
  -exchange      EXHF   =         0.00000000
  -V(xc)+E(xc)   XCENC  =       -18.63755638
  PAW double counting   =       176.24759923     -141.06103558
  entropy T*S    EENTRO =        -0.00073530
  eigenvalues    EBANDS =        11.74102155
  atomic energy  EATOM  =       206.12968587
  Solvation  Ediel_sol  =         0.00000000
  ---------------------------------------------------
  free energy    TOTEN  =         6.42208910 eV

  energy without entropy =        6.42282440  energy(sigma->0) =        6.42245675


--------------------------------------------------------------------------------------------------------




--------------------------------------- Iteration      1(   2)  ---------------------------------------


     EDDAV:  cpu time    0.6719: real time    0.6736
       DOS:  cpu time    0.0156: real time    0.0014
    --------------------------------------------
      LOOP:  cpu time    0.6875: real time    0.6750

 eigenvalue-minimisations  :  3168
 total energy-change (2. order) :-0.1340566E+02  (-0.1316834E+02)
 number of electron       8.0000000 magnetization 
 augmentation part        8.0000000 magnetization 

 Free energy of the ion-electron system (eV)
  ---------------------------------------------------
  alpha Z        PSCENC =         3.29318037
  Ewald energy   TEWEN  =      -218.56496444
  -Hartree energ DENC   =       -12.72510621
  -exchange      EXHF   =         0.00000000
  -V(xc)+E(xc)   XCENC  =       -18.63755638
  PAW double counting   =       176.24759923     -141.06103558
  entropy T*S    EENTRO =        -0.00116426
  eigenvalues    EBANDS =        -1.66421068
  atomic energy  EATOM  =       206.12968587
  Solvation  Ediel_sol  =         0.00000000
  ---------------------------------------------------
  free energy    TOTEN  =        -6.98357209 eV

  energy without entropy =       -6.98240783  energy(sigma->0) =       -6.98298996


--------------------------------------------------------------------------------------------------------




--------------------------------------- Iteration      1(   3)  ---------------------------------------


     EDDAV:  cpu time    0.5000: real time    0.4996
       DOS:  cpu time    0.0000: real time    0.0014
    --------------------------------------------
      LOOP:  cpu time    0.5000: real time    0.5010

 eigenvalue-minimisations  :  2632
 total energy-change (2. order) :-0.1870794E+00  (-0.1865617E+00)
 number of electron       8.0000000 magnetization 
 augmentation part        8.0000000 magnetization 

 Free energy of the ion-electron system (eV)
  ---------------------------------------------------
  alpha Z        PSCENC =         3.29318037
  Ewald energy   TEWEN  =      -218.56496444
  -Hartree energ DENC   =       -12.72510621
  -exchange      EXHF   =         0.00000000
  -V(xc)+E(xc)   XCENC  =       -18.63755638
  PAW double counting   =       176.24759923     -141.06103558
  entropy T*S    EENTRO =        -0.00115187
  eigenvalues    EBANDS =        -1.85130247
  atomic energy  EATOM  =       206.12968587
  Solvation  Ediel_sol  =         0.00000000
  ---------------------------------------------------
  free energy    TOTEN  =        -7.17065149 eV

  energy without entropy =       -7.16949962  energy(sigma->0) =       -7.17007556


--------------------------------------------------------------------------------------------------------




--------------------------------------- Iteration      1(   4)  ---------------------------------------


     EDDAV:  cpu time    0.7344: real time    0.7454
       DOS:  cpu time    0.0156: real time    0.0014
    --------------------------------------------
      LOOP:  cpu time    0.7500: real time    0.7467

 eigenvalue-minimisations  :  3440
 total energy-change (2. order) :-0.7340585E-03  (-0.7340018E-03)
 number of electron       8.0000000 magnetization 
 augmentation part        8.0000000 magnetization 

 Free energy of the ion-electron system (eV)
  ---------------------------------------------------
  alpha Z        PSCENC =         3.29318037
  Ewald energy   TEWEN  =      -218.56496444
  -Hartree energ DENC   =       -12.72510621
  -exchange      EXHF   =         0.00000000
  -V(xc)+E(xc)   XCENC  =       -18.63755638
  PAW double counting   =       176.24759923     -141.06103558
  entropy T*S    EENTRO =        -0.00114604
  eigenvalues    EBANDS =        -1.85204236
  atomic energy  EATOM  =       206.12968587
  Solvation  Ediel_sol  =         0.00000000
  ---------------------------------------------------
  free energy    TOTEN  =        -7.17138555 eV

  energy without entropy =       -7.17023951  energy(sigma->0) =       -7.17081253


--------------------------------------------------------------------------------------------------------




--------------------------------------- Iteration      1(   5)  ---------------------------------------


     EDDAV:  cpu time    0.5156: real time    0.5171
       DOS:  cpu time    0.0000: real time    0.0013
    CHARGE:  cpu time    0.0312: real time    0.0277
    MIXING:  cpu time    0.0000: real time    0.0004
    --------------------------------------------
      LOOP:  cpu time    0.5469: real time    0.5465

 eigenvalue-minimisations  :  2736
 total energy-change (2. order) :-0.4412238E-06  (-0.4409094E-06)
 number of electron       8.0000000 magnetization 
 augmentation part       -0.5113995 magnetization 

 Broyden mixing:
  rms(total) = 0.64339E+00    rms(broyden)= 0.64338E+00
  rms(prec ) = 0.14206E+01
  weight for this iteration     100.00

 Free energy of the ion-electron system (eV)
  ---------------------------------------------------
  alpha Z        PSCENC =         3.29318037
  Ewald energy   TEWEN  =      -218.56496444
  -Hartree energ DENC   =       -12.72510621
  -exchange      EXHF   =         0.00000000
  -V(xc)+E(xc)   XCENC  =       -18.63755638
  PAW double counting   =       176.24759923     -141.06103558
  entropy T*S    EENTRO =        -0.00114605
  eigenvalues    EBANDS =        -1.85204280
  atomic energy  EATOM  =       206.12968587
  Solvation  Ediel_sol  =         0.00000000
  ---------------------------------------------------
  free energy    TOTEN  =        -7.17138599 eV

  energy without entropy =       -7.17023995  energy(sigma->0) =       -7.17081297


--------------------------------------------------------------------------------------------------------




--------------------------------------- Iteration      1(   6)  ---------------------------------------


    POTLOK:  cpu time    0.0000: real time    0.0121
    SETDIJ:  cpu time    0.0625: real time    0.0583
    EDDIAG:  cpu time    0.0938: real time    0.0890
  RMM-DIIS:  cpu time    0.3750: real time    0.3874
    ORTHCH:  cpu time    0.0000: real time    0.0018
       DOS:  cpu time    0.0000: real time    0.0014
    --------------------------------------------
      LOOP:  cpu time    0.5312: real time    0.5499

 eigenvalue-minimisations  :  2048
 total energy-change (2. order) : 0.5620907E+00  (-0.5262287E-01)
 number of electron       8.0000000 magnetization 
 augmentation part       -0.5113995 magnetization 

 Free energy of the ion-electron system (eV)
  ---------------------------------------------------
  alpha Z        PSCENC =         3.29318037
  Ewald energy   TEWEN  =      -218.56496444
  -Hartree energ DENC   =       -14.95024853
  -exchange      EXHF   =         0.00000000
  -V(xc)+E(xc)   XCENC  =       -18.35118101
  PAW double counting   =       435.03307873     -400.05394350
  entropy T*S    EENTRO =        -0.00120629
  eigenvalues    EBANDS =         0.85630355
  atomic energy  EATOM  =       206.12968587
  Solvation  Ediel_sol  =         0.00000000
  ---------------------------------------------------
  free energy    TOTEN  =        -6.60929525 eV

  energy without entropy =       -6.60808896  energy(sigma->0) =       -6.60869210


--------------------------------------------------------------------------------------------------------




 average (electrostatic) potential at core
  the test charge radii are     0.9892
  (the norm of the test charge is              1.0000)
       1 -84.3599       2 -84.3599



 E-fermi :   5.4220     XC(G=0):  -9.4606     alpha+bet :-11.7317


 k-point     1 :       0.1250    0.1250    0.1250
  band No.  band energies     occupation 
      1      -6.8320      2.00000
      2       2.1413      2.00000
      3       4.5089      2.00000
      4       6.0015      0.00000
      5       6.6850      0.00000
      6       7.3707      0.00000
      7      10.0977      0.00000
      8      10.9212      0.00000

 k-point     2 :       0.1250    0.0000    0.0000
  band No.  band energies     occupation 
      1      -6.8201      2.00000
      2       2.0873      2.00000
      3       4.2340      2.00000
      4       5.8170      0.00000
      5       6.7492      0.00000
      6       8.8255      0.00000
      7       9.6697      0.00000
      8      10.7629      0.00000

 k-point     3 :       0.0000    0.0000   -0.1250
  band No.  band energies     occupation 
      1      -6.7962      2.00000
      2       1.6231      2.00000
      3       5.3911      1.61712
      4       5.7344      0.00000
      5       6.2130      0.00000
      6       8.7527      0.00000
      7       9.2587      0.00000
      8      10.7710      0.00000

 k-point     4 :       0.0000    0.1250    0.0000
  band No.  band energies     occupation 
      1      -6.7842      2.00000
      2       1.4596      2.00000
      3       5.2398      2.00000
      4       5.5658      0.00005
      5       7.6016      0.00000
      6       8.3963      0.00000
      7       8.9991      0.00000
      8      10.3459      0.00000

 k-point     5 :       0.3750    0.1250    0.1250
  band No.  band energies     occupation 
      1      -6.0686      2.00000
      2       1.1783      2.00000
      3       2.4320      2.00000
      4       3.9642      2.00000
      5       6.5579      0.00000
      6       9.2349      0.00000
      7      10.7592      0.00000
      8      10.9028      0.00000

 k-point     6 :       0.1250    0.3750    0.1250
  band No.  band energies     occupation 
      1      -5.8433      2.00000
      2      -0.5322      2.00000
      3       3.5694      2.00000
      4       4.5820      2.00000
      5       8.0232      0.00000
      6       8.7352      0.00000
      7       9.5202      0.00000
      8      10.6292      0.00000

 k-point     7 :       0.1250    0.1250    0.3750
  band No.  band energies     occupation 
      1      -5.9248      2.00000
      2      -0.1102      2.00000
      3       3.5182      2.00000
      4       4.7316      2.00000
      5       6.1112      0.00000
      6       8.6912      0.00000
      7      10.2151      0.00000
      8      11.6233      0.00000

 k-point     8 :       0.1250    0.0000   -0.2500
  band No.  band energies     occupation 
      1      -5.8969      2.00000
      2      -0.1270      2.00000
      3       2.8358      2.00000
      4       5.7097      0.00000
      5       6.1771      0.00000
      6       8.1798      0.00000
      7      10.3316      0.00000
      8      11.6553      0.00000

 k-point     9 :       0.3750    0.2500    0.2500
  band No.  band energies     occupation 
      1      -6.1123      2.00000
      2       1.5770      2.00000
      3       2.4599      2.00000
      4       3.7143      2.00000
      5       6.5459      0.00000
      6       8.3986      0.00000
      7      10.3468      0.00000
      8      11.3923      0.00000

 k-point    10 :       0.1250   -0.2500    0.0000
  band No.  band energies     occupation 
      1      -5.7996      2.00000
      2      -0.6557      2.00000
      3       3.1049      2.00000
      4       5.3550      1.94194
      5       7.4984      0.00000
      6       9.2799      0.00000
      7       9.4400      0.00000
      8      11.3459      0.00000

 k-point    11 :       0.0000    0.2500   -0.1250
  band No.  band energies     occupation 
      1      -5.6987      2.00000
      2      -1.0795      2.00000
      3       3.4824      2.00000
      4       5.5885      0.00000
      5       7.6864      0.00000
      6       8.3171      0.00000
      7      10.2311      0.00000
      8      11.0745      0.00000

 k-point    12 :       0.2500    0.0000   -0.1250
  band No.  band energies     occupation 
      1      -5.9957      2.00000
      2       1.1306      2.00000
      3       1.4266      2.00000
      4       5.7368      0.00000
      5       6.3716      0.00000
      6       8.2742      0.00000
      7      10.7182      0.00000
      8      10.7890      0.00000

 k-point    13 :      -0.2500   -0.2500   -0.3750
  band No.  band energies     occupation 
      1      -6.0668      2.00000
      2       1.2007      2.00000
      3       2.0497      2.00000
      4       5.2206      2.00000
      5       6.0252      0.00000
      6       8.0102      0.00000
      7      10.3094      0.00000
      8      11.1024      0.00000

 k-point    14 :       0.2500    0.3750    0.2500
  band No.  band energies     occupation 
      1      -6.0410      2.00000
      2       0.8926      2.00000
      3       2.1232      2.00000
      4       5.2530      2.00000
      5       7.0082      0.00000
      6       7.6026      0.00000
      7       9.7230      0.00000
      8      11.1463      0.00000

 k-point    15 :       0.0000    0.1250   -0.2500
  band No.  band energies     occupation 
      1      -5.7581      2.00000
      2      -0.8451      2.00000
      3       3.3948      2.00000
      4       5.8576      0.00000
      5       7.0010      0.00000
      6       7.6167      0.00000
      7      10.6023      0.00000
      8      11.5254      0.00000

 k-point    16 :      -0.2500    0.1250    0.0000
  band No.  band energies     occupation 
      1      -5.9563      2.00000
      2       0.4181      2.00000
      3       2.0307      2.00000
      4       5.6165      0.00000
      5       7.0223      0.00000
      6       8.2770      0.00000
      7      10.2527      0.00000
      8      11.3465      0.00000

 k-point    17 :      -0.3750    0.1250    0.1250
  band No.  band energies     occupation 
      1      -5.3441      2.00000
      2      -0.4321      2.00000
      3       1.8190      2.00000
      4       4.3846      2.00000
      5       5.7837      0.00000
      6       8.8964      0.00000
      7      10.6547      0.00000
      8      12.2376      0.00000

 k-point    18 :       0.1250   -0.3750    0.1250
  band No.  band energies     occupation 
      1      -4.4137      2.00000
      2      -2.8780      2.00000
      3       3.5005      2.00000
      4       4.2221      2.00000
      5       7.5584      0.00000
      6       7.9144      0.00000
      7      11.3905      0.00000
      8      11.8129      0.00000

 k-point    19 :       0.1250    0.1250   -0.3750
  band No.  band energies     occupation 
      1      -4.8462      2.00000
      2      -2.0961      2.00000
      3       3.3722      2.00000
      4       4.6307      2.00000
      5       5.7033      0.00000
      6       7.8460      0.00000
      7      11.4547      0.00000
      8      12.6463      0.00000

 k-point    20 :       0.1250    0.0000    0.5000
  band No.  band energies     occupation 
      1      -4.8338      2.00000
      2      -2.1051      2.00000
      3       2.9800      2.00000
      4       5.1132      2.00000
      5       6.1278      0.00000
      6       7.3264      0.00000
      7      11.5447      0.00000
      8      12.6785      0.00000

 k-point    21 :      -0.3750    0.5000    0.5000
  band No.  band energies     occupation 
      1      -5.5077      2.00000
      2       0.3179      2.00000
      3       1.7697      2.00000
      4       3.9624      2.00000
      5       5.7283      0.00000
      6       8.3051      0.00000
      7      10.1535      0.00000
      8      12.1609      0.00000

 k-point    22 :       0.1250    0.5000    0.0000
  band No.  band energies     occupation 
      1      -4.4544      2.00000
      2      -2.8061      2.00000
      3       3.1908      2.00000
      4       4.6145      2.00000
      5       7.0420      0.00000
      6       8.5724      0.00000
      7      10.8928      0.00000
      8      11.6853      0.00000

 k-point    23 :       0.0000    0.5000   -0.1250
  band No.  band energies     occupation 
      1      -4.5500      2.00000
      2      -2.6321      2.00000
      3       2.9376      2.00000
      4       4.5528      2.00000
      5       7.7228      0.00000
      6       8.8583      0.00000
      7      10.1959      0.00000
      8      10.5964      0.00000

 k-point    24 :       0.5000    0.0000   -0.1250
  band No.  band energies     occupation 
      1      -5.3100      2.00000
      2      -0.4536      2.00000
      3       1.3707      2.00000
      4       5.1513      2.00000
      5       6.6376      0.00000
      6       7.4389      0.00000
      7      10.6077      0.00000
      8      12.3624      0.00000

 k-point    25 :       0.5000    0.5000    0.3750
  band No.  band energies     occupation 
      1      -5.4849      2.00000
      2       0.3309      2.00000
      3       1.3382      2.00000
      4       4.8975      2.00000
      5       5.7297      0.00000
      6       7.6081      0.00000
      7      10.1049      0.00000
      8      12.0417      0.00000

 k-point    26 :       0.5000   -0.3750    0.5000
  band No.  band energies     occupation 
      1      -5.4773      2.00000
      2       0.3926      2.00000
      3       1.1736      2.00000
      4       4.5340      2.00000
      5       7.1285      0.00000
      6       7.3206      0.00000
      7       9.0485      0.00000
      8      12.0592      0.00000

 k-point    27 :       0.0000    0.1250    0.5000
  band No.  band energies     occupation 
      1      -4.9098      2.00000
      2      -1.8938      2.00000
      3       2.6417      2.00000
      4       4.7698      2.00000
      5       6.8112      0.00000
      6       7.9946      0.00000
      7       9.9762      0.00000
      8      11.7101      0.00000

 k-point    28 :       0.5000    0.1250    0.0000
  band No.  band energies     occupation 
      1      -5.3224      2.00000
      2      -0.3319      2.00000
      3       1.2447      2.00000
      4       4.9049      2.00000
      5       6.9760      0.00000
      6       7.8496      0.00000
      7       9.6942      0.00000
      8      12.2528      0.00000

 k-point    29 :      -0.1250    0.1250    0.1250
  band No.  band energies     occupation 
      1      -6.3762      2.00000
      2       1.4742      2.00000
      3       2.7893      2.00000
      4       5.3025      1.99927
      5       5.8461      0.00000
      6       9.7059      0.00000
      7      10.4662      0.00000
      8      11.7498      0.00000

 k-point    30 :       0.1250   -0.1250    0.1250
  band No.  band energies     occupation 
      1      -6.2560      2.00000
      2       0.1312      2.00000
      3       4.0604      2.00000
      4       5.6025      0.00000
      5       7.3024      0.00000
      6       8.4223      0.00000
      7       9.7821      0.00000
      8      10.3843      0.00000

 k-point    31 :       0.1250    0.1250   -0.1250
  band No.  band energies     occupation 
      1      -6.2942      2.00000
      2       0.3994      2.00000
      3       4.2331      2.00000
      4       5.5647      0.00005
      5       5.9827      0.00000
      6       8.3400      0.00000
      7      10.1193      0.00000
      8      11.0061      0.00000

 k-point    32 :       0.1250    0.0000    0.2500
  band No.  band energies     occupation 
      1      -6.2957      2.00000
      2       0.3688      2.00000
      3       4.4000      2.00000
      4       5.0552      2.00000
      5       7.0121      0.00000
      6       7.9145      0.00000
      7      10.0772      0.00000
      8      10.2655      0.00000

 k-point    33 :      -0.1250   -0.2500   -0.2500
  band No.  band energies     occupation 
      1      -6.4126      2.00000
      2       1.6586      2.00000
      3       3.2255      2.00000
      4       4.6912      2.00000
      5       5.8978      0.00000
      6       8.8528      0.00000
      7      10.6825      0.00000
      8      10.9448      0.00000

 k-point    34 :       0.1250    0.2500    0.0000
  band No.  band energies     occupation 
      1      -6.2778      2.00000
      2       0.2391      2.00000
      3       4.4971      2.00000
      4       5.0656      2.00000
      5       6.9560      0.00000
      6       8.2100      0.00000
      7      10.0482      0.00000
      8      10.5309      0.00000

 k-point    35 :       0.0000   -0.2500   -0.1250
  band No.  band energies     occupation 
      1      -6.3294      2.00000
      2       0.7197      2.00000
      3       3.9132      2.00000
      4       4.5908      2.00000
      5       6.8201      0.00000
      6       9.3099      0.00000
      7      10.1611      0.00000
      8      11.1886      0.00000

 k-point    36 :      -0.2500    0.0000   -0.1250
  band No.  band energies     occupation 
      1      -6.3723      2.00000
      2       1.1741      2.00000
      3       3.1106      2.00000
      4       5.1696      2.00000
      5       7.6255      0.00000
      6       7.8838      0.00000
      7       9.5418      0.00000
      8      11.0402      0.00000

 k-point    37 :       0.2500    0.2500    0.1250
  band No.  band energies     occupation 
      1      -6.4074      2.00000
      2       1.4331      2.00000
      3       3.3297      2.00000
      4       5.1321      2.00000
      5       6.2578      0.00000
      6       8.0900      0.00000
      7       9.8796      0.00000
      8      10.9371      0.00000

 k-point    38 :      -0.2500   -0.1250   -0.2500
  band No.  band energies     occupation 
      1      -6.4088      2.00000
      2       1.4622      2.00000
      3       3.3656      2.00000
      4       4.6419      2.00000
      5       7.2978      0.00000
      6       8.1309      0.00000
      7       9.3936      0.00000
      8       9.9258      0.00000

 k-point    39 :       0.0000    0.1250    0.2500
  band No.  band energies     occupation 
      1      -6.3671      2.00000
      2       1.1608      2.00000
      3       3.5343      2.00000
      4       4.6712      2.00000
      5       6.2022      0.00000
      6       9.4181      0.00000
      7       9.8680      0.00000
      8      10.7589      0.00000

 k-point    40 :       0.2500    0.1250    0.0000
  band No.  band energies     occupation 
      1      -6.3924      2.00000
      2       1.5249      2.00000
      3       2.9010      2.00000
      4       5.0114      2.00000
      5       6.7519      0.00000
      6       8.7198      0.00000
      7       9.4623      0.00000
      8      10.6255      0.00000

 k-point    41 :       0.3750    0.3750    0.1250
  band No.  band energies     occupation 
      1      -5.5962      2.00000
      2       0.0947      2.00000
      3       2.5461      2.00000
      4       4.0174      2.00000
      5       5.3603      1.91909
      6       8.0692      0.00000
      7       9.9120      0.00000
      8      12.5214      0.00000

 k-point    42 :       0.1250    0.3750    0.3750
  band No.  band energies     occupation 
      1      -5.6617      2.00000
      2       0.9305      2.00000
      3       2.1118      2.00000
      4       3.0962      2.00000
      5       5.1329      2.00000
      6       9.1567      0.00000
      7      10.8588      0.00000
      8      12.2151      0.00000

 k-point    43 :       0.3750    0.1250    0.3750
  band No.  band energies     occupation 
      1      -5.5787      2.00000
      2       0.0014      2.00000
      3       2.5987      2.00000
      4       3.5561      2.00000
      5       7.0103      0.00000
      6       7.3079      0.00000
      7       9.8128      0.00000
      8      11.0589      0.00000

 k-point    44 :       0.3750    0.2500    0.0000
  band No.  band energies     occupation 
      1      -5.5734      2.00000
      2       0.1629      2.00000
      3       2.0250      2.00000
      4       4.0879      2.00000
      5       6.4971      0.00000
      6       7.1407      0.00000
      7      10.2783      0.00000
      8      11.9503      0.00000

 k-point    45 :       0.3750    0.0000    0.2500
  band No.  band energies     occupation 
      1      -5.5163      2.00000
      2      -0.2684      2.00000
      3       2.2708      2.00000
      4       4.5171      2.00000
      5       5.9444      0.00000
      6       8.0783      0.00000
      7       9.5743      0.00000
      8      12.8068      0.00000

 k-point    46 :       0.1250   -0.2500   -0.2500
  band No.  band energies     occupation 
      1      -5.6037      2.00000
      2       0.5782      2.00000
      3       1.8193      2.00000
      4       3.8335      2.00000
      5       5.0348      2.00000
      6       8.8890      0.00000
      7      11.8002      0.00000
      8      12.6837      0.00000

 k-point    47 :       0.2500    0.2500   -0.1250
  band No.  band energies     occupation 
      1      -5.3971      2.00000
      2      -0.8784      2.00000
      3       3.3762      2.00000
      4       4.4140      2.00000
      5       5.1225      2.00000
      6       7.4462      0.00000
      7      11.5833      0.00000
      8      12.3657      0.00000

 k-point    48 :       0.0000   -0.2500   -0.3750
  band No.  band energies     occupation 
      1      -5.5923      2.00000
      2       0.6398      2.00000
      3       1.5548      2.00000
      4       3.7430      2.00000
      5       5.8461      0.00000
      6       8.4399      0.00000
      7      10.9321      0.00000
      8      11.4970      0.00000

 k-point    49 :      -0.2500    0.0000   -0.3750
  band No.  band energies     occupation 
      1      -5.3756      2.00000
      2      -0.9699      2.00000
      3       3.1797      2.00000
      4       4.4304      2.00000
      5       5.7864      0.00000
      6       7.5385      0.00000
      7      10.7350      0.00000
      8      12.0408      0.00000

 k-point    50 :       0.2500    0.3750    0.0000
  band No.  band energies     occupation 
      1      -5.3668      2.00000
      2      -1.0065      2.00000
      3       3.5150      2.00000
      4       3.9367      2.00000
      5       6.1602      0.00000
      6       7.0774      0.00000
      7      11.3727      0.00000
      8      12.5907      0.00000

 k-point    51 :      -0.2500    0.1250   -0.2500
  band No.  band energies     occupation 
      1      -5.2982      2.00000
      2      -1.2312      2.00000
      3       3.2303      2.00000
      4       4.4652      2.00000
      5       6.2187      0.00000
      6       7.2460      0.00000
      7      11.4525      0.00000
      8      12.3790      0.00000

 k-point    52 :       0.0000    0.3750    0.2500
  band No.  band energies     occupation 
      1      -5.5287      2.00000
      2      -0.0813      2.00000
      3       2.2850      2.00000
      4       3.6836      2.00000
      5       6.0041      0.00000
      6       8.3950      0.00000
      7      11.4918      0.00000
      8      12.0249      0.00000

 k-point    53 :      -0.3750    0.3750    0.1250
  band No.  band energies     occupation 
      1      -4.6987      2.00000
      2      -0.6744      2.00000
      3       0.8614      2.00000
      4       2.8681      2.00000
      5       7.0232      0.00000
      6       8.3126      0.00000
      7      10.2133      0.00000
      8      12.6661      0.00000

 k-point    54 :       0.1250   -0.3750    0.3750
  band No.  band energies     occupation 
      1      -4.4362      2.00000
      2      -1.5408      2.00000
      3       1.1849      2.00000
      4       3.0377      2.00000
      5       7.6934      0.00000
      6       8.5005      0.00000
[...]
      3       2.1423      2.00000
      4       3.5121      2.00000
      5       8.2826      0.00000
      6       8.9099      0.00000
      7      10.8263      0.00000
      8      11.2745      0.00000

 k-point    95 :      -0.2500   -0.1250    0.2500
  band No.  band energies     occupation 
      1      -3.9981      2.00000
      2      -0.4566      2.00000
      3       2.4104      2.00000
      4       3.9298      2.00000
      5       8.1812      0.00000
      6       9.2947      0.00000
      7      10.6776      0.00000
      8      11.9060      0.00000

 k-point    96 :      -0.2500   -0.3750    0.5000
  band No.  band energies     occupation 
      1      -4.1967      2.00000
      2       0.3543      2.00000
      3       2.1608      2.00000
      4       3.4774      2.00000
      5       8.2974      0.00000
      6       8.8764      0.00000
      7      10.8268      0.00000
      8      11.3089      0.00000

 k-point    97 :       0.5000    0.1250    0.2500
  band No.  band energies     occupation 
      1      -4.0761      2.00000
      2      -0.2177      2.00000
      3       2.5899      2.00000
      4       3.4815      2.00000
      5       8.7011      0.00000
      6       8.9053      0.00000
      7      10.3811      0.00000
      8      11.7812      0.00000

 k-point    98 :       0.1250   -0.1250   -0.3750
  band No.  band energies     occupation 
      1      -4.0027      2.00000
      2      -0.3847      2.00000
      3       2.1258      2.00000
      4       4.1834      2.00000
      5       8.3279      0.00000
      6       9.5779      0.00000
      7      10.4233      0.00000
      8      11.1643      0.00000

 k-point    99 :      -0.3750    0.1250   -0.1250
  band No.  band energies     occupation 
      1      -3.9922      2.00000
      2      -0.4233      2.00000
      3       2.1493      2.00000
      4       4.1884      2.00000
      5       8.3395      0.00000
      6       9.5906      0.00000
      7      10.4121      0.00000
      8      11.1890      0.00000

 k-point   100 :      -0.1250   -0.3750    0.1250
  band No.  band energies     occupation 
      1      -3.9971      2.00000
      2      -0.4053      2.00000
      3       2.1416      2.00000
      4       4.1776      2.00000
      5       8.3546      0.00000
      6       9.5748      0.00000
      7      10.4007      0.00000
      8      11.1901      0.00000

 k-point   101 :      -0.3750   -0.3750    0.1250
  band No.  band energies     occupation 
      1      -2.9978      2.00000
      2      -1.2711      2.00000
      3       2.5875      2.00000
      4       2.7773      2.00000
      5       6.2778      0.00574
      6       7.7548      0.00000
      7      13.9517      0.00000
      8      14.1634      0.00000

 k-point   102 :       0.1250   -0.3750   -0.3750
  band No.  band energies     occupation 
      1      -2.9841      2.00000
      2      -1.2969      2.00000
      3       2.5838      2.00000
      4       2.7956      2.00000
      5       6.2989      0.00078
      6       7.7302      0.00000
      7      13.9595      0.00000
      8      14.1711      0.00000

 k-point   103 :      -0.3750    0.1250   -0.3750
  band No.  band energies     occupation 
      1      -2.9840      2.00000
      2      -1.2971      2.00000
      3       2.5839      2.00000
      4       2.7955      2.00000
      5       6.2993      0.00075
      6       7.7299      0.00000
      7      13.9597      0.00000
      8      14.1740      0.00000

 k-point   104 :      -0.3750    0.5000    0.0000
  band No.  band energies     occupation 
      1      -3.0127      2.00000
      2      -1.1997      2.00000
      3       2.0539      2.00000
      4       3.2254      2.00000
      5       6.7063      0.00000
      6       7.3771      0.00000
      7      13.6126      0.00000
      8      13.9565      0.00000

 k-point   105 :      -0.3750    0.0000    0.5000
  band No.  band energies     occupation 
      1      -3.0135      2.00000
      2      -1.2008      2.00000
      3       2.0657      2.00000
      4       3.2198      2.00000
      5       6.6828      0.00000
      6       7.3956      0.00000
      7      13.5945      0.00000
      8      13.9630      0.00000

 k-point   106 :       0.1250    0.5000    0.5000
  band No.  band energies     occupation 
      1      -3.1379      2.00000
      2      -0.9808      2.00000
      3       2.3612      2.00000
      4       2.8095      2.00000
      5       6.3434      0.00000
      6       7.7496      0.00000
      7      13.5543      0.00000
      8      13.7650      0.00000

 k-point   107 :       0.5000    0.5000   -0.1250
  band No.  band energies     occupation 
      1      -3.1421      2.00000
      2      -0.9716      2.00000
      3       2.3745      2.00000
      4       2.7906      2.00000
      5       6.3199      0.00008
      6       7.7745      0.00000
      7      13.5755      0.00000
      8      13.7655      0.00000

 k-point   108 :       0.0000    0.5000    0.3750
  band No.  band energies     occupation 
      1      -3.0056      2.00000
      2      -1.2169      2.00000
      3       2.0764      2.00000
      4       3.2190      2.00000
      5       6.6804      0.00000
      6       7.3958      0.00000
      7      13.6192      0.00000
      8      13.9740      0.00000

 k-point   109 :       0.5000    0.0000    0.3750
  band No.  band energies     occupation 
      1      -3.0056      2.00000
      2      -1.2169      2.00000
      3       2.0764      2.00000
      4       3.2191      2.00000
      5       6.6801      0.00000
      6       7.3961      0.00000
      7      13.6194      0.00000
      8      13.9745      0.00000

 k-point   110 :       0.5000   -0.3750    0.0000
  band No.  band energies     occupation 
      1      -3.0128      2.00000
      2      -1.1995      2.00000
      3       2.0538      2.00000
      4       3.2254      2.00000
      5       6.7063      0.00000
      6       7.3771      0.00000
      7      13.6111      0.00000
      8      13.9564      0.00000

 k-point   111 :       0.5000    0.1250    0.5000
  band No.  band energies     occupation 
      1      -3.1379      2.00000
      2      -0.9809      2.00000
      3       2.3612      2.00000
      4       2.8095      2.00000
      5       6.3439      0.00000
      6       7.7492      0.00000
      7      13.5541      0.00000
      8      13.7644      0.00000

 k-point   112 :       0.0000   -0.3750    0.5000
  band No.  band energies     occupation 
      1      -3.0136      2.00000
      2      -1.2007      2.00000
      3       2.0657      2.00000
      4       3.2197      2.00000
      5       6.6832      0.00000
      6       7.3952      0.00000
      7      13.5938      0.00000
      8      13.9628      0.00000

 k-point   113 :       0.3750    0.3750    0.3750
  band No.  band energies     occupation 
      1      -4.7213      2.00000
      2       0.2801      2.00000
      3       4.3173      2.00000
      4       4.3683      2.00000
      5       7.0093      0.00000
      6       8.7794      0.00000
      7       8.8354      0.00000
      8      13.2023      0.00000

 k-point   114 :       0.3750    0.0000    0.0000
  band No.  band energies     occupation 
      1      -4.5234      2.00000
      2      -0.4636      2.00000
      3       4.1392      2.00000
      4       5.1350      2.00000
      5       7.2432      0.00000
      6       8.6091      0.00000
      7       9.7129      0.00000
      8      13.5547      0.00000

 k-point   115 :       0.0000    0.0000   -0.3750
  band No.  band energies     occupation 
      1      -4.5335      2.00000
      2      -0.4299      2.00000
      3       4.1149      2.00000
      4       5.1421      2.00000
      5       7.2270      0.00000
      6       8.5796      0.00000
      7       9.7082      0.00000
      8      13.5661      0.00000

 k-point   116 :       0.0000    0.3750    0.0000
  band No.  band energies     occupation 
      1      -4.5234      2.00000
      2      -0.4639      2.00000
      3       4.1393      2.00000
      4       5.1349      2.00000
      5       7.2437      0.00000
      6       8.6092      0.00000
      7       9.7125      0.00000
      8      13.4111      0.00000

 k-point   117 :      -0.3750    0.3750    0.3750
  band No.  band energies     occupation 
      1      -3.6189      2.00000
      2      -0.3680      2.00000
      3       1.5340      2.00000
      4       3.5602      2.00000
      5       7.2404      0.00000
      6      10.7698      0.00000
      7      10.8794      0.00000
      8      12.6399      0.00000

 k-point   118 :       0.3750   -0.3750    0.3750
  band No.  band energies     occupation 
      1      -3.6188      2.00000
      2      -0.3680      2.00000
      3       1.5339      2.00000
      4       3.5602      2.00000
      5       7.2409      0.00000
      6      10.7697      0.00000
      7      10.8790      0.00000
      8      12.6367      0.00000

 k-point   119 :       0.3750    0.3750   -0.3750
  band No.  band energies     occupation 
      1      -3.6247      2.00000
      2      -0.3551      2.00000
      3       1.5496      2.00000
      4       3.5352      2.00000
      5       7.2154      0.00000
      6      10.7882      0.00000
      7      10.9080      0.00000
      8      12.6453      0.00000

 k-point   120 :       0.3750    0.0000   -0.2500
  band No.  band energies     occupation 
      1      -3.2471      2.00000
      2      -1.2529      2.00000
      3       1.6030      2.00000
      4       4.0624      2.00000
      5       7.6092      0.00000
      6      10.7774      0.00000
      7      11.1323      0.00000
      8      12.3063      0.00000

 k-point   121 :      -0.3750    0.2500    0.2500
  band No.  band energies     occupation 
      1      -3.3976      2.00000
      2      -1.0405      2.00000
      3       2.0308      2.00000
      4       3.5069      2.00000
      5       7.2144      0.00000
      6      11.1006      0.00000
      7      11.5638      0.00000
      8      12.4103      0.00000

 k-point   122 :       0.3750   -0.2500    0.0000
  band No.  band energies     occupation 
      1      -3.2397      2.00000
      2      -1.2641      2.00000
      3       1.5936      2.00000
      4       4.0734      2.00000
      5       7.6421      0.00000
      6      10.7588      0.00000
      7      11.0943      0.00000
      8      12.2931      0.00000

 k-point   123 :       0.0000    0.2500   -0.3750
  band No.  band energies     occupation 
      1      -3.2620      2.00000
      2      -1.2198      2.00000
      3       1.5829      2.00000
      4       4.0652      2.00000
      5       7.6107      0.00000
      6      10.7456      0.00000
      7      11.1048      0.00000
      8      12.3250      0.00000

 k-point   124 :       0.2500    0.0000   -0.3750
  band No.  band energies     occupation 
      1      -3.2620      2.00000
      2      -1.2198      2.00000
      3       1.5830      2.00000
      4       4.0652      2.00000
      5       7.6103      0.00000
      6      10.7466      0.00000
      7      11.1055      0.00000
      8      12.3475      0.00000

 k-point   125 :      -0.2500   -0.2500    0.3750
  band No.  band energies     occupation 
      1      -3.4173      2.00000
      2      -0.9969      2.00000
      3       2.0277      2.00000
      4       3.4848      2.00000
      5       7.1905      0.00000
      6      11.0933      0.00000
      7      11.5646      0.00000
      8      12.4478      0.00000

 k-point   126 :       0.2500   -0.3750    0.2500
  band No.  band energies     occupation 
      1      -3.3975      2.00000
      2      -1.0408      2.00000
      3       2.0308      2.00000
      4       3.5069      2.00000
      5       7.2148      0.00000
      6      11.0986      0.00000
      7      11.5672      0.00000
      8      13.1148      0.00000

 k-point   127 :       0.0000    0.3750   -0.2500
  band No.  band energies     occupation 
      1      -3.2469      2.00000
      2      -1.2533      2.00000
      3       1.6030      2.00000
      4       4.0623      2.00000
      5       7.6096      0.00000
      6      10.7771      0.00000
      7      11.1321      0.00000
      8      12.3661      0.00000

 k-point   128 :      -0.2500    0.3750    0.0000
  band No.  band energies     occupation 
      1      -3.2396      2.00000
      2      -1.2644      2.00000
      3       1.5937      2.00000
      4       4.0734      2.00000
      5       7.6421      0.00000
      6      10.7596      0.00000
      7      11.0950      0.00000
      8      12.3720      0.00000


--------------------------------------------------------------------------------------------------------


 soft charge-density along one line, spin component           1
         0         1         2         3         4         5         6         7         8         9
 total charge-density along one line

 pseudopotential strength for first ion, spin component:           1
 18.443  25.731   0.003   0.003   0.003   0.005   0.006   0.005
 25.731  35.904   0.004   0.004   0.004   0.007   0.008   0.007
  0.003   0.004   4.182  -0.000  -0.001   7.793  -0.001  -0.001
  0.003   0.004  -0.000   4.182  -0.000  -0.001   7.793  -0.001
  0.003   0.004  -0.001  -0.000   4.182  -0.001  -0.001   7.793
  0.005   0.007   7.793  -0.001  -0.001  14.533  -0.001  -0.002
  0.006   0.008  -0.001   7.793  -0.001  -0.001  14.533  -0.001
  0.005   0.007  -0.001  -0.001   7.793  -0.002  -0.001  14.533
 total augmentation occupancy for first ion, spin component:           1
  5.652  -2.129   0.132   0.158   0.134  -0.040  -0.048  -0.041
 -2.129   0.917  -0.069  -0.082  -0.070   0.020   0.024   0.020
  0.132  -0.069   3.029  -0.188  -0.208  -0.695   0.060   0.067
  0.158  -0.082  -0.188   3.024  -0.188   0.060  -0.694   0.060
  0.134  -0.070  -0.208  -0.188   3.029   0.067   0.060  -0.696
 -0.040   0.020  -0.695   0.060   0.067   0.168  -0.018  -0.020
 -0.048   0.024   0.060  -0.694   0.060  -0.018   0.168  -0.018
 -0.041   0.020   0.067   0.060  -0.696  -0.020  -0.018   0.169


------------------------ aborting loop because EDIFF is reached ----------------------------------------


    CHARGE:  cpu time    0.0156: real time    0.0216
    FORLOC:  cpu time    0.0000: real time    0.0005
    FORNL :  cpu time    0.1719: real time    0.1782
    STRESS:  cpu time    0.5781: real time    0.5763
    FORCOR:  cpu time    0.0312: real time    0.0133
    FORHAR:  cpu time    0.0000: real time    0.0032
    MIXING:  cpu time    0.0000: real time    0.0005
    OFIELD:  cpu time    0.0000: real time    0.0000

  FORCE on cell =-STRESS in cart. coord.  units (eV):
  Direction    XX          YY          ZZ          XY          YZ          ZX
  --------------------------------------------------------------------------------------
  Alpha Z     3.29318     3.29318     3.29318
  Ewald     -75.51036   -75.50886   -75.64497    -7.87041    -7.14724    -7.13880
  Hartree     5.06401     5.06406     5.05604    -0.91039    -0.82780    -0.82709
  E(xc)     -25.26259   -25.26265   -25.26068     0.06373     0.05749     0.05759
  Local     -29.73622   -29.73853   -29.59562     8.35638     7.59823     7.59090
  n-local    77.67404    77.67376    77.63230    -1.56206    -1.40932    -1.40897
  augment   -11.65367   -11.65369   -11.65156     0.06776     0.06094     0.06091
  Kinetic    56.30531    56.30542    56.31633     1.07076     0.98139     0.98095
  Fock        0.00000     0.00000     0.00000     0.00000     0.00000     0.00000
  -------------------------------------------------------------------------------------
  Total       0.17370     0.17271     0.14502    -0.78422    -0.68631    -0.68451
  in kB       6.80624     6.76754     5.68264   -30.72926   -26.89255   -26.82207
  external pressure =        6.42 kB  Pullay stress =        0.00 kB


 VOLUME and BASIS-vectors are now :
 -----------------------------------------------------------------------------
  energy-cutoff  :      300.00
  volume of cell :       40.89
      direct lattice vectors                 reciprocal lattice vectors
     0.000000000  2.734364000  2.734364000    -0.182857878  0.182857878  0.182857878
     2.734364000  0.000000000  2.734364000     0.182857878 -0.182857878  0.182857878
     2.734364000  2.734364000  0.000000000     0.182857878  0.182857878 -0.182857878

  length of vectors
     3.866974653  3.866974653  3.866974653     0.316719136  0.316719136  0.316719136


 FORCES acting on ions
    electron-ion (+dipol)            ewald-force                    non-local-force                 convergence-correction
 -----------------------------------------------------------------------------------------------
   0.138E+01 0.138E+01 0.167E+01   -.152E+01 -.152E+01 -.180E+01   -.795E+00 -.794E+00 -.952E+00   0.511E-03 -.290E-03 -.202E-03
   -.138E+01 -.138E+01 -.167E+01   0.152E+01 0.152E+01 0.180E+01   0.795E+00 0.794E+00 0.952E+00   -.511E-03 0.290E-03 0.202E-03
 -----------------------------------------------------------------------------------------------
   0.524E-06 -.792E-06 0.646E-06   0.444E-15 0.000E+00 0.000E+00   0.111E-15 -.111E-15 0.000E+00   0.425E-08 -.617E-08 0.323E-08


 POSITION                                       TOTAL-FORCE (eV/Angst)
 -----------------------------------------------------------------------------------
      3.74014      4.16391      4.08644        -0.934601     -0.933474     -1.077971
      2.27546      2.69934      2.61275         0.934601      0.933474      1.077971
 -----------------------------------------------------------------------------------
    total drift:                                0.000001     -0.000001      0.000001


--------------------------------------------------------------------------------------------------------



  FREE ENERGIE OF THE ION-ELECTRON SYSTEM (eV)
  ---------------------------------------------------
  free  energy   TOTEN  =       -10.67705300 eV

  energy  without entropy=      -10.67703979  energy(sigma->0) =      -10.67704639

 d Force = 0.1466513E+01[ 0.377E+00, 0.256E+01]  d Energy = 0.1615355E+01-0.149E+00
 d Force = 0.2895621E+01[ 0.610E+00, 0.518E+01]  d Ewald  = 0.3146693E+01-0.251E+00


--------------------------------------------------------------------------------------------------------


    POTLOK:  cpu time    0.0781: real time    0.0826


--------------------------------------------------------------------------------------------------------


 Quasi-Newton relaxation of ions (Broydens 2nd method)
  g(Force)  = 0.280E+00   g(Stress)= 0.000E+00

 retain information from N=  2 steps
 eigenvalues of (default step * inverse Hessian matrix)
  average eigenvalue of G=   0.4899
 eigenvalue spectrum of G is  0.4899  0.4899


--------------------------------------------------------------------------------------------------------


     LOOP+:  cpu time    4.2656: real time    4.2720
    4ORBIT:  cpu time    0.0000: real time    0.0000

 total amount of memory used by VASP MPI-rank0    35065. kBytes
=======================================================================

   base      :      30000. kBytes
   nonlr-proj:        314. kBytes
   fftplans  :       1065. kBytes
   grid      :       1504. kBytes
   one-center:          3. kBytes
   wavefun   :       2179. kBytes

  
  
 General timing and accounting informations for this job:
 ========================================================
  
                  Total CPU time used (sec):       22.359
                            User time (sec):       22.016
                          System time (sec):        0.344
                         Elapsed time (sec):       22.216
  
                   Maximum memory used (kb):       43124.
                   Average memory used (kb):           0.
  
                          Minor page faults:        12071
                          Major page faults:            0
                 Voluntary context switches:            0
