    4    4    1    1
  0.1648482E+02  0.4040000E-09  0.4040000E-09  0.4040000E-09  0.1000000E-15
  1.000000000000000E-004
  CAR 
 unknown system                          
     12      1     10
 
  0.2500000E+00  0.2500000E+00  0.2500000E+00  0.1000000E+01
    1       -1.439825   1.000000
    2        2.964373   1.000000
    3        2.964373   1.000000
    4        2.964373   1.000000
    5        7.254542   0.666667
    6        7.254542   0.666667
    7        7.254542   0.666667
    8       11.451811  -0.000000
    9       11.670398  -0.000000
   10       11.670398  -0.000000
