<?xml version="1.0" encoding="ISO-8859-1"?>
<modeling>
 <generator>
  <i name="program" type="string">vasp </i>
  <i name="version" type="string">5.4.1  </i>
  <i name="subversion" type="string">05Feb16 (build Oct 11 2016 12:26:42) complex                          parallel </i>
  <i name="platform" type="string">UNITY_VASP_5.4.1 </i>
  <i name="date" type="string">2018 01 23 </i>
  <i name="time" type="string">12:24:43 </i>
 </generator>
 <incar>
  <i type="string" name="PREC">a</i>
  <i type="string" name="ALGO"> V</i>
  <i type="int" name="ISPIN">     1</i>
  <i name="ENCUT">    350.00000000</i>
  <i type="int" name="NEDOS">  1000</i>
  <i name="EMIN">    -10.00000000</i>
  <i name="EMAX">     10.00000000</i>
  <i type="int" name="ISMEAR">     0</i>
  <i type="logical" name="LORBIT"> F  </i>
  <v type="int" name="KPOINT_BSE">    -1     0     0     0</v>
 </incar>
 <kpoints>
  <generation param="Gamma">
   <v type="int" name="divisions">       7        7        7 </v>
   <v name="usershift">      0.00000000       0.00000000       0.00000000 </v>
   <v name="genvec1">      0.14285714       0.00000000       0.00000000 </v>
   <v name="genvec2">      0.00000000       0.14285714       0.00000000 </v>
   <v name="genvec3">      0.00000000       0.00000000       0.14285714 </v>
   <v name="shift">      0.00000000       0.00000000       0.00000000 </v>
  </generation>
  <varray name="kpointlist" >
   <v>       0.00000000       0.00000000       0.00000000 </v>
   <v>       0.14285714       0.00000000       0.00000000 </v>
   <v>       0.28571429       0.00000000       0.00000000 </v>
   <v>       0.42857143       0.00000000       0.00000000 </v>
   <v>       0.00000000       0.14285714       0.00000000 </v>
   <v>       0.14285714       0.14285714       0.00000000 </v>
   <v>       0.28571429       0.14285714       0.00000000 </v>
   <v>       0.42857143       0.14285714       0.00000000 </v>
   <v>       0.00000000       0.28571429       0.00000000 </v>
   <v>       0.14285714       0.28571429       0.00000000 </v>
   <v>       0.28571429       0.28571429       0.00000000 </v>
   <v>       0.42857143       0.28571429       0.00000000 </v>
   <v>       0.00000000       0.42857143       0.00000000 </v>
   <v>       0.14285714       0.42857143       0.00000000 </v>
   <v>       0.28571429       0.42857143       0.00000000 </v>
   <v>       0.42857143       0.42857143       0.00000000 </v>
   <v>       0.00000000       0.14285714       0.14285714 </v>
   <v>       0.14285714       0.14285714       0.14285714 </v>
   <v>       0.28571429       0.14285714       0.14285714 </v>
   <v>       0.42857143       0.14285714       0.14285714 </v>
   <v>       0.00000000       0.28571429       0.14285714 </v>
   <v>       0.14285714       0.28571429       0.14285714 </v>
   <v>       0.28571429       0.28571429       0.14285714 </v>
   <v>       0.42857143       0.28571429       0.14285714 </v>
   <v>       0.00000000       0.42857143       0.14285714 </v>
   <v>       0.14285714       0.42857143       0.14285714 </v>
   <v>       0.28571429       0.42857143       0.14285714 </v>
   <v>       0.42857143       0.42857143       0.14285714 </v>
   <v>       0.00000000      -0.42857143       0.14285714 </v>
   <v>       0.14285714      -0.42857143       0.14285714 </v>
   <v>       0.28571429      -0.42857143       0.14285714 </v>
   <v>       0.42857143      -0.42857143       0.14285714 </v>
   <v>       0.00000000      -0.28571429       0.14285714 </v>
   <v>       0.14285714      -0.28571429       0.14285714 </v>
   <v>       0.28571429      -0.28571429       0.14285714 </v>
   <v>       0.42857143      -0.28571429       0.14285714 </v>
   <v>       0.00000000      -0.14285714       0.14285714 </v>
   <v>       0.14285714      -0.14285714       0.14285714 </v>
   <v>       0.28571429      -0.14285714       0.14285714 </v>
   <v>       0.42857143      -0.14285714       0.14285714 </v>
   <v>       0.00000000       0.28571429       0.28571429 </v>
   <v>       0.14285714       0.28571429       0.28571429 </v>
   <v>       0.28571429       0.28571429       0.28571429 </v>
   <v>       0.42857143       0.28571429       0.28571429 </v>
   <v>       0.00000000       0.42857143       0.28571429 </v>
   <v>       0.14285714       0.42857143       0.28571429 </v>
   <v>       0.28571429       0.42857143       0.28571429 </v>
   <v>       0.42857143       0.42857143       0.28571429 </v>
   <v>       0.00000000      -0.42857143       0.28571429 </v>
   <v>       0.14285714      -0.42857143       0.28571429 </v>
   <v>       0.28571429      -0.42857143       0.28571429 </v>
   <v>       0.42857143      -0.42857143       0.28571429 </v>
   <v>       0.00000000      -0.28571429       0.28571429 </v>
   <v>       0.14285714      -0.28571429       0.28571429 </v>
   <v>       0.28571429      -0.28571429       0.28571429 </v>
   <v>       0.42857143      -0.28571429       0.28571429 </v>
   <v>       0.00000000       0.42857143       0.42857143 </v>
   <v>       0.14285714       0.42857143       0.42857143 </v>
   <v>       0.28571429       0.42857143       0.42857143 </v>
   <v>       0.42857143       0.42857143       0.42857143 </v>
   <v>       0.00000000      -0.42857143       0.42857143 </v>
   <v>       0.14285714      -0.42857143       0.42857143 </v>
   <v>       0.28571429      -0.42857143       0.42857143 </v>
   <v>       0.42857143      -0.42857143       0.42857143 </v>
  </varray>
  <varray name="weights" >
   <v>       0.00291545 </v>
   <v>       0.00583090 </v>
   <v>       0.00583090 </v>
   <v>       0.00583090 </v>
   <v>       0.01166181 </v>
   <v>       0.02332362 </v>
   <v>       0.02332362 </v>
   <v>       0.02332362 </v>
   <v>       0.01166181 </v>
   <v>       0.02332362 </v>
   <v>       0.02332362 </v>
   <v>       0.02332362 </v>
   <v>       0.01166181 </v>
   <v>       0.02332362 </v>
   <v>       0.02332362 </v>
   <v>       0.02332362 </v>
   <v>       0.00583090 </v>
   <v>       0.01166181 </v>
   <v>       0.01166181 </v>
   <v>       0.01166181 </v>
   <v>       0.01166181 </v>
   <v>       0.02332362 </v>
   <v>       0.02332362 </v>
   <v>       0.02332362 </v>
   <v>       0.01166181 </v>
   <v>       0.02332362 </v>
   <v>       0.02332362 </v>
   <v>       0.02332362 </v>
   <v>       0.01166181 </v>
   <v>       0.02332362 </v>
   <v>       0.02332362 </v>
   <v>       0.02332362 </v>
   <v>       0.01166181 </v>
   <v>       0.02332362 </v>
   <v>       0.02332362 </v>
   <v>       0.02332362 </v>
   <v>       0.00583090 </v>
   <v>       0.01166181 </v>
   <v>       0.01166181 </v>
   <v>       0.01166181 </v>
   <v>       0.00583090 </v>
   <v>       0.01166181 </v>
   <v>       0.01166181 </v>
   <v>       0.01166181 </v>
   <v>       0.01166181 </v>
   <v>       0.02332362 </v>
   <v>       0.02332362 </v>
   <v>       0.02332362 </v>
   <v>       0.01166181 </v>
   <v>       0.02332362 </v>
   <v>       0.02332362 </v>
   <v>       0.02332362 </v>
   <v>       0.00583090 </v>
   <v>       0.01166181 </v>
   <v>       0.01166181 </v>
   <v>       0.01166181 </v>
   <v>       0.00583090 </v>
   <v>       0.01166181 </v>
   <v>       0.01166181 </v>
   <v>       0.01166181 </v>
   <v>       0.00583090 </v>
   <v>       0.01166181 </v>
   <v>       0.01166181 </v>
   <v>       0.01166181 </v>
  </varray>
 </kpoints>
 <parameters>
  <separator name="general" >
   <i type="string" name="SYSTEM">unknown system</i>
   <i type="logical" name="LCOMPAT"> F  </i>
  </separator>
  <separator name="electronic" >
   <i type="string" name="PREC">a</i>
   <i name="ENMAX">    350.00000000</i>
   <i name="ENAUG">    322.06900000</i>
   <i name="EDIFF">      0.00010000</i>
   <i type="int" name="IALGO">    48</i>
   <i type="int" name="IWAVPR">    10</i>
   <i type="int" name="NBANDS">    21</i>
   <i name="NELECT">     32.00000000</i>
   <i type="int" name="TURBO">     0</i>
   <i type="int" name="IRESTART">     0</i>
   <i type="int" name="NREBOOT">     0</i>
   <i type="int" name="NMIN">     0</i>
   <i name="EREF">      0.00000000</i>
   <separator name="electronic smearing" >
    <i type="int" name="ISMEAR">     0</i>
    <i name="SIGMA">      0.20000000</i>
    <i name="KSPACING">      0.50000000</i>
    <i type="logical" name="KGAMMA"> T  </i>
   </separator>
   <separator name="electronic projectors" >
    <i type="logical" name="LREAL"> F  </i>
    <v name="ROPT">      0.00000000</v>
    <i type="int" name="LMAXPAW">  -100</i>
    <i type="int" name="LMAXMIX">     2</i>
    <i type="logical" name="NLSPLINE"> F  </i>
   </separator>
   <separator name="electronic startup" >
    <i type="int" name="ISTART">     0</i>
    <i type="int" name="ICHARG">     2</i>
    <i type="int" name="INIWAV">     1</i>
   </separator>
   <separator name="electronic spin" >
    <i type="int" name="ISPIN">     1</i>
    <i type="logical" name="LNONCOLLINEAR"> F  </i>
    <v name="MAGMOM">      1.00000000      1.00000000      1.00000000      1.00000000      1.00000000      1.00000000      1.00000000      1.00000000</v>
    <i name="NUPDOWN">     -1.00000000</i>
    <i type="logical" name="LSORBIT"> F  </i>
    <v name="SAXIS">      0.00000000      0.00000000      1.00000000</v>
    <i type="logical" name="LSPIRAL"> F  </i>
    <v name="QSPIRAL">      0.00000000      0.00000000      0.00000000</v>
    <i type="logical" name="LZEROZ"> F  </i>
   </separator>
   <separator name="electronic exchange-correlation" >
    <i type="logical" name="LASPH"> F  </i>
    <i type="logical" name="LMETAGGA"> F  </i>
   </separator>
   <separator name="electronic convergence" >
    <i type="int" name="NELM">    60</i>
    <i type="int" name="NELMDL">   -12</i>
    <i type="int" name="NELMIN">     2</i>
    <i name="ENINI">    350.00000000</i>
    <separator name="electronic convergence detail" >
     <i type="logical" name="LDIAG"> T  </i>
     <i type="logical" name="LSUBROT"> F  </i>
     <i name="WEIMIN">      0.00000000</i>
     <i name="EBREAK">      0.00000119</i>
     <i name="DEPER">      0.30000000</i>
     <i type="int" name="NRMM">     4</i>
     <i name="TIME">      0.40000000</i>
    </separator>
   </separator>
   <separator name="electronic mixer" >
    <i name="AMIX">      0.40000000</i>
    <i name="BMIX">      1.00000000</i>
    <i name="AMIN">      0.10000000</i>
    <i name="AMIX_MAG">      1.60000000</i>
    <i name="BMIX_MAG">      1.00000000</i>
    <separator name="electronic mixer details" >
     <i type="int" name="IMIX">     4</i>
     <i type="logical" name="MIXFIRST"> F  </i>
     <i type="int" name="MAXMIX">   -45</i>
     <i name="WC">    100.00000000</i>
     <i type="int" name="INIMIX">     1</i>
     <i type="int" name="MIXPRE">     1</i>
     <i type="int" name="MREMOVE">     5</i>
    </separator>
   </separator>
   <separator name="electronic dipolcorrection" >
    <i type="logical" name="LDIPOL"> F  </i>
    <i type="logical" name="LMONO"> F  </i>
    <i type="int" name="IDIPOL">     0</i>
    <i name="EPSILON">      1.00000000</i>
    <v name="DIPOL">   -100.00000000   -100.00000000   -100.00000000</v>
    <i name="EFIELD">      0.00000000</i>
   </separator>
  </separator>
  <separator name="grids" >
   <i type="int" name="NGX">    36</i>
   <i type="int" name="NGY">    36</i>
   <i type="int" name="NGZ">    36</i>
   <i type="int" name="NGXF">    72</i>
   <i type="int" name="NGYF">    72</i>
   <i type="int" name="NGZF">    72</i>
   <i type="logical" name="ADDGRID"> F  </i>
  </separator>
  <separator name="ionic" >
   <i type="int" name="NSW">     0</i>
   <i type="int" name="IBRION">    -1</i>
   <i type="int" name="ISIF">     2</i>
   <i name="PSTRESS">      0.00000000</i>
   <i name="EDIFFG">      0.00100000</i>
   <i type="int" name="NFREE">     0</i>
   <i name="POTIM">      0.50000000</i>
   <i name="SMASS">     -3.00000000</i>
   <i name="SCALEE">      1.00000000</i>
  </separator>
  <separator name="ionic md" >
   <i name="TEBEG">      0.00010000</i>
   <i name="TEEND">      0.00010000</i>
   <i type="int" name="NBLOCK">     1</i>
   <i type="int" name="KBLOCK">     1</i>
   <i type="int" name="NPACO">   256</i>
   <i name="APACO">     16.00000000</i>
  </separator>
  <separator name="symmetry" >
   <i type="int" name="ISYM">     2</i>
   <i name="SYMPREC">      0.00001000</i>
  </separator>
  <separator name="dos" >
   <i type="logical" name="LORBIT"> F  </i>
   <v name="RWIGS">     -1.00000000</v>
   <i type="int" name="NEDOS">  1000</i>
   <i name="EMIN">    -10.00000000</i>
   <i name="EMAX">     10.00000000</i>
   <i name="EFERMI">      0.00000000</i>
  </separator>
  <separator name="writing" >
   <i type="int" name="NWRITE">     2</i>
   <i type="logical" name="LWAVE"> T  </i>
   <i type="logical" name="LCHARG"> T  </i>
   <i type="logical" name="LPARD"> F  </i>
   <i type="logical" name="LVTOT"> F  </i>
   <i type="logical" name="LVHAR"> F  </i>
   <i type="logical" name="LELF"> F  </i>
   <i type="logical" name="LOPTICS"> F  </i>
   <v name="STM">      0.00000000      0.00000000      0.00000000      0.00000000      0.00000000      0.00000000      0.00000000</v>
  </separator>
  <separator name="performance" >
   <i type="int" name="NPAR">     1</i>
   <i type="int" name="NSIM">     4</i>
   <i type="int" name="NBLK">    -1</i>
   <i type="logical" name="LPLANE"> T  </i>
   <i type="logical" name="LSCALAPACK"> T  </i>
   <i type="logical" name="LSCAAWARE"> F  </i>
   <i type="logical" name="LSCALU"> F  </i>
   <i type="logical" name="LASYNC"> F  </i>
   <i type="logical" name="LORBITALREAL"> F  </i>
  </separator>
  <separator name="miscellaneous" >
   <i type="int" name="IDIOT">     3</i>
   <i type="logical" name="LMUSIC"> F  </i>
   <v name="POMASS">     28.08500000</v>
   <v name="DARWINR">      0.00000000</v>
   <v name="DARWINV">      1.00000000</v>
   <i type="logical" name="LCORR"> T  </i>
  </separator>
  <i type="logical" name="GGA_COMPAT"> T  </i>
  <i type="logical" name="LBERRY"> F  </i>
  <i type="int" name="ICORELEVEL">     0</i>
  <i type="logical" name="LDAU"> F  </i>
  <i type="int" name="I_CONSTRAINED_M">     0</i>
  <separator name="electronic exchange-correlation" >
   <i type="string" name="GGA">--</i>
   <i type="int" name="VOSKOWN">     0</i>
   <i type="logical" name="LHFCALC"> F  </i>
   <i type="string" name="PRECFOCK"></i>
   <i type="logical" name="LSYMGRAD"> F  </i>
   <i type="logical" name="LHFONE"> F  </i>
   <i type="logical" name="LRHFCALC"> F  </i>
   <i type="logical" name="LTHOMAS"> F  </i>
   <i type="logical" name="LMODELHF"> F  </i>
   <i name="ENCUT4O">     -1.00000000</i>
   <i type="int" name="EXXOEP">     0</i>
   <i type="int" name="FOURORBIT">     0</i>
   <i name="AEXX">      0.00000000</i>
   <i name="HFALPHA">      0.00000000</i>
   <i name="MCALPHA">      0.00000000</i>
   <i name="ALDAX">      1.00000000</i>
   <i name="AGGAX">      1.00000000</i>
   <i name="ALDAC">      1.00000000</i>
   <i name="AGGAC">      1.00000000</i>
   <i type="int" name="NKREDX">     1</i>
   <i type="int" name="NKREDY">     1</i>
   <i type="int" name="NKREDZ">     1</i>
   <i type="logical" name="SHIFTRED"> F  </i>
   <i type="logical" name="ODDONLY"> F  </i>
   <i type="logical" name="EVENONLY"> F  </i>
   <i type="int" name="LMAXFOCK">     0</i>
   <i type="int" name="NMAXFOCKAE">     0</i>
   <i type="logical" name="LFOCKAEDFT"> F  </i>
   <i name="HFSCREEN">      0.00000000</i>
   <i name="HFSCREENC">      0.00000000</i>
   <i type="int" name="NBANDSGWLOW">     0</i>
  </separator>
  <separator name="vdW DFT" >
   <i type="logical" name="LUSE_VDW"> F  </i>
   <i name="Zab_VDW">     -0.84910000</i>
   <i name="PARAM1">      0.12340000</i>
   <i name="PARAM2">      1.00000000</i>
   <i name="PARAM3">      0.00000000</i>
  </separator>
  <separator name="model GW" >
   <i type="int" name="MODEL_GW">     0</i>
   <i name="MODEL_EPS0">     12.24162890</i>
   <i name="MODEL_ALPHA">      1.00000000</i>
  </separator>
  <separator name="linear response parameters" >
   <i type="logical" name="LEPSILON"> F  </i>
   <i type="logical" name="LRPA"> F  </i>
   <i type="logical" name="LNABLA"> F  </i>
   <i type="logical" name="LVEL"> F  </i>
   <i type="int" name="KINTER">******</i>
   <i name="CSHIFT">      0.10000000</i>
   <i name="OMEGAMAX">     -1.00000000</i>
   <i name="DEG_THRESHOLD">      0.00200000</i>
  </separator>
  <separator name="orbital magnetization" >
   <i type="logical" name="NUCIND"> F  </i>
   <v name="MAGPOS">      0.00000000      0.00000000      0.00000000</v>
   <i type="logical" name="LNICSALL"> T  </i>
   <i type="logical" name="ORBITALMAG"> F  </i>
   <i type="logical" name="LMAGBLOCH"> F  </i>
   <i type="logical" name="LCHIMAG"> F  </i>
   <i type="logical" name="LGAUGE"> T  </i>
   <i type="int" name="MAGATOM">     0</i>
   <v name="MAGDIPOL">      0.00000000      0.00000000      0.00000000</v>
   <v name="AVECCONST">      0.00000000      0.00000000      0.00000000</v>
  </separator>
  <separator name="response functions" >
   <i type="logical" name="LADDER"> F  </i>
   <i type="logical" name="LFXC"> F  </i>
   <i type="logical" name="LHARTREE"> T  </i>
   <i type="int" name="IBSE">     0</i>
   <v type="int" name="KPOINT">    -1     0     0     0</v>
   <i type="logical" name="LTCTE"> F  </i>
   <i type="logical" name="LTETE"> F  </i>
   <i type="logical" name="LTRIPLET"> F  </i>
   <i type="logical" name="LFXCEPS"> F  </i>
   <i type="logical" name="LFXHEG"> F  </i>
   <i type="int" name="NATURALO">     0</i>
   <i type="logical" name="L2ORDER"> F  </i>
   <i type="logical" name="LUSEW"> F  </i>
   <i name="ENCUTGW">     -2.00000000</i>
   <i name="ENCUTGWSOFT">     -2.00000000</i>
   <i name="ENCUTLF">     -1.00000000</i>
   <i type="int" name="LMAXMP2">    -1</i>
   <i name="SCISSOR">      0.00000000</i>
   <i type="int" name="NOMEGA">     0</i>
   <i type="int" name="NOMEGAR">     0</i>
   <i type="int" name="NBANDSGW">    -1</i>
   <i type="int" name="NBANDSO">    -1</i>
   <i type="int" name="NBANDSV">    -1</i>
   <i type="int" name="NELM">     1</i>
   <i type="int" name="NELMHF">     1</i>
   <i type="int" name="DIM">     3</i>
   <i type="int" name="ANTIRES">     0</i>
   <i name="OMEGAMAX">    -30.00000000</i>
   <i name="OMEGAMIN">    -30.00000000</i>
   <i name="OMEGATL">   -200.00000000</i>
   <i type="int" name="OMEGAGRID">     0</i>
   <i name="CSHIFT">     -0.10000000</i>
   <i type="logical" name="SELFENERGY"> F  </i>
   <i type="logical" name="LSPECTRAL"> F  </i>
   <i type="logical" name="LSPECTRALGW"> F  </i>
   <i type="logical" name="LSINGLES"> F  </i>
   <i type="logical" name="LFERMIGW"> F  </i>
   <i type="logical" name="ODDONLYGW"> F  </i>
   <i type="logical" name="EVENONLYGW"> F  </i>
   <i type="int" name="NKREDLFX">     1</i>
   <i type="int" name="NKREDLFY">     1</i>
   <i type="int" name="NKREDLFZ">     1</i>
   <i type="int" name="MAXMEM">  1800</i>
   <i type="int" name="TELESCOPE">     0</i>
   <i type="int" name="TAUPAR">     1</i>
   <i type="int" name="OMEGAPAR">    -1</i>
   <i name="LAMBDA">      1.00000000</i>
  </separator>
  <separator name="External order field" >
   <i name="OFIELD_KAPPA">      0.00000000</i>
   <v name="OFIELD_K">      0.00000000      0.00000000      0.00000000</v>
   <i name="OFIELD_Q6_NEAR">      0.00000000</i>
   <i name="OFIELD_Q6_FAR">      0.00000000</i>
   <i name="OFIELD_A">      0.00000000</i>
  </separator>
 </parameters>
 <atominfo>
  <atoms>       8 </atoms>
  <types>       1 </types>
  <array name="atoms" >
   <dimension dim="1">ion</dimension>
   <field type="string">element</field>
   <field type="int">atomtype</field>
   <set>
    <rc><c>Si</c><c>   1</c></rc>
    <rc><c>Si</c><c>   1</c></rc>
    <rc><c>Si</c><c>   1</c></rc>
    <rc><c>Si</c><c>   1</c></rc>
    <rc><c>Si</c><c>   1</c></rc>
    <rc><c>Si</c><c>   1</c></rc>
    <rc><c>Si</c><c>   1</c></rc>
    <rc><c>Si</c><c>   1</c></rc>
   </set>
  </array>
  <array name="atomtypes" >
   <dimension dim="1">type</dimension>
   <field type="int">atomspertype</field>
   <field type="string">element</field>
   <field>mass</field>
   <field>valence</field>
   <field type="string">pseudopotential</field>
   <set>
    <rc><c>   8</c><c>Si</c><c>     28.08500000</c><c>      4.00000000</c><c> PAW_PBE Si 05Jan2001                   </c></rc>
   </set>
  </array>
 </atominfo>
 <structure name="initialpos" >
  <crystal>
   <varray name="basis" >
    <v>       5.46503124       0.00000000       0.00000000 </v>
    <v>       0.00000000       5.46503124       0.00000000 </v>
    <v>       0.00000000       0.00000000       5.46503124 </v>
   </varray>
   <i name="volume">    163.22171868 </i>
   <varray name="rec_basis" >
    <v>       0.18298157       0.00000000       0.00000000 </v>
    <v>       0.00000000       0.18298157       0.00000000 </v>
    <v>       0.00000000       0.00000000       0.18298157 </v>
   </varray>
  </crystal>
  <varray name="positions" >
   <v>       0.00000000       0.00000000       0.00000000 </v>
   <v>       0.00000000       0.50000000       0.50000000 </v>
   <v>       0.45000000       0.50000000       0.00000000 </v>
   <v>       0.50000000       0.00000000       0.50000000 </v>
   <v>       0.75000000       0.25000000       0.75000000 </v>
   <v>       0.25000000       0.25000000       0.25000000 </v>
   <v>       0.25000000       0.75000000       0.75000000 </v>
   <v>       0.75000000       0.75000000       0.25000000 </v>
  </varray>
 </structure>
 <calculation>
  <scstep>
   <time name="diag">    0.47    0.47</time>
   <time name="diis">    0.37    0.37</time>
   <time name="orth">    0.17    0.17</time>
   <time name="total">    1.07    1.08</time>
   <energy>
    <i name="alphaZ">     13.19945063 </i>
    <i name="ewald">   -906.87732482 </i>
    <i name="hartreedc">    -45.91134206 </i>
    <i name="XCdc">    -74.69017088 </i>
    <i name="pawpsdc">    263.82083246 </i>
    <i name="pawaedc">   -123.07410713 </i>
    <i name="eentropy">     -0.01727157 </i>
    <i name="bandstr">    212.39026679 </i>
    <i name="atom">    824.52501657 </i>
    <i name="e_fr_energy">    163.36535000 </i>
    <i name="e_wo_entrp">    163.38262157 </i>
    <i name="e_0_energy">    163.37398579 </i>
   </energy>
  </scstep>
  <scstep>
   <time name="diag">    0.41    0.41</time>
   <time name="diis">    0.37    0.37</time>
   <time name="orth">    0.17    0.17</time>
   <time name="total">    0.96    0.96</time>
   <energy>
    <i name="e_fr_energy">     14.25096237 </i>
    <i name="e_wo_entrp">     14.28755555 </i>
    <i name="e_0_energy">     14.26925896 </i>
   </energy>
  </scstep>
  <scstep>
   <time name="diag">    0.40    0.40</time>
   <time name="diis">    0.37    0.37</time>
   <time name="orth">    0.17    0.17</time>
   <time name="total">    0.96    0.96</time>
   <energy>
    <i name="e_fr_energy">    -23.07346816 </i>
    <i name="e_wo_entrp">    -23.03034203 </i>
    <i name="e_0_energy">    -23.05190509 </i>
   </energy>
  </scstep>
  <scstep>
   <time name="diag">    0.40    0.41</time>
   <time name="diis">    0.37    0.37</time>
   <time name="orth">    0.17    0.17</time>
   <time name="total">    0.96    0.96</time>
   <energy>
    <i name="e_fr_energy">    -34.93107495 </i>
    <i name="e_wo_entrp">    -34.90122713 </i>
    <i name="e_0_energy">    -34.91615104 </i>
   </energy>
  </scstep>
  <scstep>
   <time name="diag">    0.40    0.40</time>
   <time name="diis">    0.36    0.36</time>
   <time name="orth">    0.17    0.17</time>
   <time name="total">    0.96    0.96</time>
   <energy>
    <i name="e_fr_energy">    -40.20561851 </i>
    <i name="e_wo_entrp">    -40.19598842 </i>
    <i name="e_0_energy">    -40.20080347 </i>
   </energy>
  </scstep>
  <scstep>
   <time name="diag">    0.49    0.49</time>
   <time name="diis">    0.50    0.50</time>
   <time name="orth">    0.21    0.21</time>
   <time name="total">    1.21    1.22</time>
   <energy>
    <i name="e_fr_energy">    -42.18597037 </i>
    <i name="e_wo_entrp">    -42.18184714 </i>
    <i name="e_0_energy">    -42.18390876 </i>
   </energy>
  </scstep>
  <scstep>
   <time name="diag">    0.45    0.45</time>
   <time name="diis">    0.37    0.37</time>
   <time name="orth">    0.17    0.17</time>
   <time name="total">    1.00    1.01</time>
   <energy>
    <i name="e_fr_energy">    -42.97602238 </i>
    <i name="e_wo_entrp">    -42.97337466 </i>
    <i name="e_0_energy">    -42.97469852 </i>
   </energy>
  </scstep>
  <scstep>
   <time name="diag">    0.40    0.41</time>
   <time name="diis">    0.37    0.37</time>
   <time name="orth">    0.17    0.17</time>
   <time name="total">    0.96    0.96</time>
   <energy>
    <i name="e_fr_energy">    -43.31648516 </i>
    <i name="e_wo_entrp">    -43.31463630 </i>
    <i name="e_0_energy">    -43.31556073 </i>
   </energy>
  </scstep>
  <scstep>
   <time name="diag">    0.40    0.40</time>
   <time name="diis">    0.97    0.97</time>
   <time name="orth">    0.17    0.17</time>
   <time name="total">    1.57    1.57</time>
   <energy>
    <i name="e_fr_energy">    -43.60205609 </i>
    <i name="e_wo_entrp">    -43.60132432 </i>
    <i name="e_0_energy">    -43.60169021 </i>
   </energy>
  </scstep>
  <scstep>
   <time name="diag">    0.40    0.40</time>
   <time name="diis">    1.07    1.07</time>
   <time name="orth">    0.17    0.17</time>
   <time name="total">    1.66    1.67</time>
   <energy>
    <i name="e_fr_energy">    -43.61776292 </i>
    <i name="e_wo_entrp">    -43.61706744 </i>
    <i name="e_0_energy">    -43.61741518 </i>
   </energy>
  </scstep>
  <scstep>
   <time name="diag">    0.40    0.40</time>
   <time name="diis">    0.88    0.88</time>
   <time name="orth">    0.17    0.17</time>
   <time name="total">    1.47    1.48</time>
   <energy>
    <i name="e_fr_energy">    -43.61908760 </i>
    <i name="e_wo_entrp">    -43.61837968 </i>
    <i name="e_0_energy">    -43.61873364 </i>
   </energy>
  </scstep>
  <scstep>
   <time name="diag">    0.40    0.40</time>
   <time name="diis">    0.76    0.76</time>
   <time name="orth">    0.17    0.17</time>
   <time name="total">    1.43    1.43</time>
   <energy>
    <i name="e_fr_energy">    -43.61915842 </i>
    <i name="e_wo_entrp">    -43.61843308 </i>
    <i name="e_0_energy">    -43.61879575 </i>
   </energy>
  </scstep>
  <scstep>
   <time name="diag">    0.40    0.40</time>
   <time name="diis">    0.84    0.84</time>
   <time name="orth">    0.17    0.17</time>
   <time name="total">    1.53    1.53</time>
   <energy>
    <i name="e_fr_energy">    -43.12616125 </i>
    <i name="e_wo_entrp">    -43.12481516 </i>
    <i name="e_0_energy">    -43.12548821 </i>
   </energy>
  </scstep>
  <scstep>
   <time name="diag">    0.40    0.40</time>
   <time name="diis">    0.82    0.82</time>
   <time name="orth">    0.17    0.17</time>
   <time name="total">    1.51    1.51</time>
   <energy>
    <i name="e_fr_energy">    -42.90775652 </i>
    <i name="e_wo_entrp">    -42.90519069 </i>
    <i name="e_0_energy">    -42.90647361 </i>
   </energy>
  </scstep>
  <scstep>
   <time name="diag">    0.40    0.40</time>
   <time name="diis">    0.93    0.93</time>
   <time name="orth">    0.17    0.17</time>
   <time name="total">    1.61    1.61</time>
   <energy>
    <i name="e_fr_energy">    -42.91151827 </i>
    <i name="e_wo_entrp">    -42.90910629 </i>
    <i name="e_0_energy">    -42.91031228 </i>
   </energy>
  </scstep>
  <scstep>
   <time name="diag">    0.40    0.40</time>
   <time name="diis">    0.98    0.98</time>
   <time name="orth">    0.17    0.17</time>
   <time name="total">    1.67    1.67</time>
   <energy>
    <i name="e_fr_energy">    -42.91218159 </i>
    <i name="e_wo_entrp">    -42.90979904 </i>
    <i name="e_0_energy">    -42.91099031 </i>
   </energy>
  </scstep>
  <scstep>
   <time name="diag">    0.49    0.49</time>
   <time name="diis">    0.96    0.97</time>
   <time name="orth">    0.21    0.21</time>
   <time name="total">    1.81    1.81</time>
   <energy>
    <i name="e_fr_energy">    -42.91229428 </i>
    <i name="e_wo_entrp">    -42.90992567 </i>
    <i name="e_0_energy">    -42.91110998 </i>
   </energy>
  </scstep>
  <scstep>
   <time name="diag">    0.41    0.41</time>
   <time name="diis">    0.61    0.61</time>
   <time name="orth">    0.17    0.17</time>
   <time name="total">    1.22    1.23</time>
   <energy>
    <i name="alphaZ">     13.19945063 </i>
    <i name="ewald">   -906.87732482 </i>
    <i name="hartreedc">    -61.26759519 </i>
    <i name="XCdc">    -72.19297539 </i>
    <i name="pawpsdc">    295.62498073 </i>
    <i name="pawaedc">   -155.72818342 </i>
    <i name="eentropy">     -0.00236706 </i>
    <i name="bandstr">     19.80668146 </i>
    <i name="atom">    824.52501657 </i>
    <i name="e_fr_energy">    -42.91231648 </i>
    <i name="e_wo_entrp">    -42.90994942 </i>
    <i name="e_0_energy">    -42.91113295 </i>
   </energy>
  </scstep>
  <structure>
   <crystal>
    <varray name="basis" >
     <v>       5.46503124       0.00000000       0.00000000 </v>
     <v>       0.00000000       5.46503124       0.00000000 </v>
     <v>       0.00000000       0.00000000       5.46503124 </v>
    </varray>
    <i name="volume">    163.22171868 </i>
    <varray name="rec_basis" >
     <v>       0.18298157       0.00000000       0.00000000 </v>
     <v>       0.00000000       0.18298157       0.00000000 </v>
     <v>       0.00000000       0.00000000       0.18298157 </v>
    </varray>
   </crystal>
   <varray name="positions" >
    <v>       0.00000000       0.00000000       0.00000000 </v>
    <v>       0.00000000       0.50000000       0.50000000 </v>
    <v>       0.45000000       0.50000000       0.00000000 </v>
    <v>       0.50000000       0.00000000       0.50000000 </v>
    <v>       0.75000000       0.25000000       0.75000000 </v>
    <v>       0.25000000       0.25000000       0.25000000 </v>
    <v>       0.25000000       0.75000000       0.75000000 </v>
    <v>       0.75000000       0.75000000       0.25000000 </v>
   </varray>
  </structure>
  <varray name="forces" >
   <v>      -0.24262429       0.00000000       0.00000000 </v>
   <v>      -0.24262429       0.00000000       0.00000000 </v>
   <v>       3.41363039       0.00000000       0.00000000 </v>
   <v>       0.44349740       0.00000000       0.00000000 </v>
   <v>      -0.73886085       0.43704160       0.43704160 </v>
   <v>      -0.94707875      -0.84967664       0.84967664 </v>
   <v>      -0.94707875       0.84967664      -0.84967664 </v>
   <v>      -0.73886085      -0.43704160      -0.43704160 </v>
  </varray>
  <varray name="stress" >
   <v>      -0.33922566       0.00000000       0.00000000 </v>
   <v>       0.00000000      12.55020857     -25.92895230 </v>
   <v>       0.00000000     -25.92895230      12.55020857 </v>
  </varray>
  <energy>
   <i name="e_fr_energy">    -42.91231648 </i>
   <i name="e_wo_entrp">    -42.91113295 </i>
   <i name="e_0_energy">     -0.00236706 </i>
  </energy>
  <time name="totalsc">   24.71   25.04</time>
  <eigenvalues>
   <array>
    <dimension dim="1">band</dimension>
    <dimension dim="2">kpoint</dimension>
    <dimension dim="3">spin</dimension>
    <field>eigene</field>
    <field>occ</field>
    <set>
     <set comment="spin 1">
      <set comment="kpoint 1">
       <r>   -6.2350    1.0000 </r>
       <r>   -2.5472    1.0000 </r>
       <r>   -2.3672    1.0000 </r>
       <r>   -2.1338    1.0000 </r>
       <r>   -2.1296    1.0000 </r>
       <r>   -1.9396    1.0000 </r>
       <r>   -1.6955    1.0000 </r>
       <r>    2.6202    1.0000 </r>
       <r>    2.7989    1.0000 </r>
       <r>    2.8158    1.0000 </r>
       <r>    2.8243    1.0000 </r>
       <r>    2.8620    1.0000 </r>
       <r>    3.0133    1.0000 </r>
       <r>    5.3405    1.0000 </r>
       <r>    5.6046    0.9949 </r>
       <r>    5.8953    0.6951 </r>
       <r>    6.1297    0.1257 </r>
       <r>    6.1749    0.0713 </r>
       <r>    6.3913    0.0014 </r>
       <r>    6.4166    0.0007 </r>
       <r>    8.5786    0.0000 </r>
      </set>
      <set comment="kpoint 2">
       <r>   -6.1499    1.0000 </r>
       <r>   -3.2154    1.0000 </r>
       <r>   -2.3445    1.0000 </r>
       <r>   -2.1323    1.0000 </r>
       <r>   -2.1025    1.0000 </r>
       <r>   -1.9082    1.0000 </r>
       <r>   -0.8961    1.0000 </r>
       <r>    2.5303    1.0000 </r>
       <r>    2.5904    1.0000 </r>
       <r>    2.6311    1.0000 </r>
       <r>    2.6446    1.0000 </r>
       <r>    2.7695    1.0000 </r>
       <r>    2.9987    1.0000 </r>
       <r>    5.0694    1.0000 </r>
       <r>    5.1008    1.0000 </r>
       <r>    5.5645    0.9978 </r>
       <r>    6.1528    0.0951 </r>
       <r>    6.5684    0.0000 </r>
       <r>    6.7752    0.0000 </r>
       <r>    6.8142    0.0000 </r>
       <r>    6.8684    0.0000 </r>
      </set>
      <set comment="kpoint 3">
       <r>   -5.8986    1.0000 </r>
       <r>   -4.0674    1.0000 </r>
       <r>   -2.2914    1.0000 </r>
       <r>   -2.0725    1.0000 </r>
       <r>   -2.0385    1.0000 </r>
       <r>   -1.8332    1.0000 </r>
       <r>    0.2738    1.0000 </r>
       <r>    2.1750    1.0000 </r>
       <r>    2.1835    1.0000 </r>
       <r>    2.1859    1.0000 </r>
       <r>    2.2101    1.0000 </r>
       <r>    2.9614    1.0000 </r>
       <r>    3.2082    1.0000 </r>
       <r>    4.0157    1.0000 </r>
       <r>    4.5200    1.0000 </r>
       <r>    4.8956    1.0000 </r>
       <r>    6.2483    0.0235 </r>
       <r>    7.2160    0.0000 </r>
       <r>    7.6692    0.0000 </r>
       <r>    7.7864    0.0000 </r>
       <r>    7.9785    0.0000 </r>
      </set>
      <set comment="kpoint 4">
       <r>   -5.5158    1.0000 </r>
       <r>   -4.7632    1.0000 </r>
       <r>   -2.2464    1.0000 </r>
       <r>   -2.0193    1.0000 </r>
       <r>   -1.9834    1.0000 </r>
       <r>   -1.7677    1.0000 </r>
       <r>    1.5006    1.0000 </r>
       <r>    1.8710    1.0000 </r>
       <r>    1.8941    1.0000 </r>
       <r>    1.9328    1.0000 </r>
       <r>    1.9378    1.0000 </r>
       <r>    2.7925    1.0000 </r>
       <r>    3.2597    1.0000 </r>
       <r>    3.5327    1.0000 </r>
       <r>    4.0069    1.0000 </r>
       <r>    4.3096    1.0000 </r>
       <r>    6.4989    0.0001 </r>
       <r>    6.9704    0.0000 </r>
       <r>    8.3081    0.0000 </r>
       <r>    9.1367    0.0000 </r>
       <r>    9.2762    0.0000 </r>
      </set>
      <set comment="kpoint 5">
       <r>   -6.1475    1.0000 </r>
       <r>   -3.2317    1.0000 </r>
       <r>   -2.4111    1.0000 </r>
       <r>   -2.1320    1.0000 </r>
       <r>   -2.1058    1.0000 </r>
       <r>   -1.7555    1.0000 </r>
       <r>   -0.9670    1.0000 </r>
       <r>    2.3994    1.0000 </r>
       <r>    2.5316    1.0000 </r>
       <r>    2.6186    1.0000 </r>
       <r>    2.7068    1.0000 </r>
       <r>    2.9496    1.0000 </r>
       <r>    2.9834    1.0000 </r>
       <r>    4.9194    1.0000 </r>
       <r>    5.3275    1.0000 </r>
       <r>    5.5231    0.9992 </r>
       <r>    6.1584    0.0885 </r>
       <r>    6.4687    0.0002 </r>
       <r>    6.7096    0.0000 </r>
       <r>    6.8871    0.0000 </r>
       <r>    7.0701    0.0000 </r>
      </set>
      <set comment="kpoint 6">
       <r>   -6.0629    1.0000 </r>
       <r>   -3.2719    1.0000 </r>
       <r>   -3.0306    1.0000 </r>
       <r>   -2.2439    1.0000 </r>
       <r>   -1.9492    1.0000 </r>
       <r>   -1.1207    1.0000 </r>
       <r>   -0.8263    1.0000 </r>
       <r>    2.0306    1.0000 </r>
       <r>    2.4946    1.0000 </r>
       <r>    2.6153    1.0000 </r>
       <r>    2.7111    1.0000 </r>
       <r>    2.8593    1.0000 </r>
       <r>    3.0198    1.0000 </r>
       <r>    4.3500    1.0000 </r>
       <r>    4.9783    1.0000 </r>
       <r>    5.6226    0.9926 </r>
       <r>    6.4131    0.0008 </r>
       <r>    6.5632    0.0000 </r>
       <r>    6.8190    0.0000 </r>
       <r>    7.1474    0.0000 </r>
       <r>    7.2026    0.0000 </r>
      </set>
      <set comment="kpoint 7">
       <r>   -5.8135    1.0000 </r>
       <r>   -4.0046    1.0000 </r>
       <r>   -3.0126    1.0000 </r>
       <r>   -2.3531    1.0000 </r>
       <r>   -1.7426    1.0000 </r>
       <r>   -1.0999    1.0000 </r>
       <r>    0.1849    1.0000 </r>
       <r>    1.6136    1.0000 </r>
       <r>    2.1037    1.0000 </r>
       <r>    2.5049    1.0000 </r>
       <r>    2.7004    1.0000 </r>
       <r>    2.9106    1.0000 </r>
       <r>    3.0873    1.0000 </r>
       <r>    3.4515    1.0000 </r>
       <r>    4.3610    1.0000 </r>
       <r>    5.1515    1.0000 </r>
       <r>    6.7270    0.0000 </r>
       <r>    7.0860    0.0000 </r>
       <r>    7.6273    0.0000 </r>
       <r>    7.8376    0.0000 </r>
       <r>    8.1668    0.0000 </r>
      </set>
      <set comment="kpoint 8">
       <r>   -5.4344    1.0000 </r>
       <r>   -4.6877    1.0000 </r>
       <r>   -2.8614    1.0000 </r>
       <r>   -2.4744    1.0000 </r>
       <r>   -1.5116    1.0000 </r>
       <r>   -1.2350    1.0000 </r>
       <r>    1.2816    1.0000 </r>
       <r>    1.4821    1.0000 </r>
       <r>    1.6754    1.0000 </r>
       <r>    2.3224    1.0000 </r>
       <r>    2.4406    1.0000 </r>
       <r>    2.6354    1.0000 </r>
       <r>    3.1250    1.0000 </r>
       <r>    3.4738    1.0000 </r>
       <r>    3.8947    1.0000 </r>
       <r>    4.4247    1.0000 </r>
       <r>    6.9815    0.0000 </r>
       <r>    7.4399    0.0000 </r>
       <r>    8.3427    0.0000 </r>
       <r>    8.6348    0.0000 </r>
       <r>    9.2838    0.0000 </r>
      </set>
      <set comment="kpoint 9">
       <r>   -5.8860    1.0000 </r>
       <r>   -4.1077    1.0000 </r>
       <r>   -2.3435    1.0000 </r>
       <r>   -2.0724    1.0000 </r>
       <r>   -2.0416    1.0000 </r>
       <r>   -1.6901    1.0000 </r>
       <r>    0.2030    1.0000 </r>
       <r>    1.9844    1.0000 </r>
       <r>    2.1151    1.0000 </r>
       <r>    2.2042    1.0000 </r>
       <r>    2.3218    1.0000 </r>
       <r>    3.1689    1.0000 </r>
       <r>    3.1932    1.0000 </r>
       <r>    3.9511    1.0000 </r>
       <r>    4.7161    1.0000 </r>
       <r>    4.7925    1.0000 </r>
       <r>    6.2810    0.0133 </r>
       <r>    7.1785    0.0000 </r>
       <r>    7.4822    0.0000 </r>
       <r>    7.7090    0.0000 </r>
       <r>    8.0978    0.0000 </r>
      </set>
      <set comment="kpoint 10">
       <r>   -5.8033    1.0000 </r>
       <r>   -4.0470    1.0000 </r>
       <r>   -2.9791    1.0000 </r>
       <r>   -2.3804    1.0000 </r>
       <r>   -1.7211    1.0000 </r>
       <r>   -1.0384    1.0000 </r>
       <r>    0.1192    1.0000 </r>
       <r>    1.6073    1.0000 </r>
       <r>    2.0153    1.0000 </r>
       <r>    2.4678    1.0000 </r>
       <r>    2.7492    1.0000 </r>
       <r>    3.0029    1.0000 </r>
       <r>    3.1359    1.0000 </r>
       <r>    3.4254    1.0000 </r>
       <r>    4.3740    1.0000 </r>
       <r>    5.1759    1.0000 </r>
       <r>    6.7410    0.0000 </r>
       <r>    7.0345    0.0000 </r>
       <r>    7.7564    0.0000 </r>
       <r>    7.7799    0.0000 </r>
       <r>    8.1618    0.0000 </r>
      </set>
      <set comment="kpoint 11">
       <r>   -5.5601    1.0000 </r>
       <r>   -3.9387    1.0000 </r>
       <r>   -3.7032    1.0000 </r>
       <r>   -2.7137    1.0000 </r>
       <r>   -1.3835    1.0000 </r>
       <r>   -0.3143    1.0000 </r>
       <r>    0.0302    1.0000 </r>
       <r>    1.3362    1.0000 </r>
       <r>    2.0889    1.0000 </r>
       <r>    2.2426    1.0000 </r>
       <r>    2.5905    1.0000 </r>
       <r>    2.9970    1.0000 </r>
       <r>    3.1458    1.0000 </r>
       <r>    3.4162    1.0000 </r>
       <r>    3.7863    1.0000 </r>
       <r>    5.2875    1.0000 </r>
       <r>    6.9378    0.0000 </r>
       <r>    7.7363    0.0000 </r>
       <r>    8.0447    0.0000 </r>
       <r>    8.5779    0.0000 </r>
       <r>    8.6527    0.0000 </r>
      </set>
      <set comment="kpoint 12">
       <r>   -5.1929    1.0000 </r>
       <r>   -4.4674    1.0000 </r>
       <r>   -3.5796    1.0000 </r>
       <r>   -3.0498    1.0000 </r>
       <r>   -0.9960    1.0000 </r>
       <r>   -0.5754    1.0000 </r>
       <r>    0.7777    1.0000 </r>
       <r>    1.3751    1.0000 </r>
       <r>    1.6079    1.0000 </r>
       <r>    1.7166    1.0000 </r>
       <r>    2.5587    1.0000 </r>
       <r>    3.0257    1.0000 </r>
       <r>    3.2037    1.0000 </r>
       <r>    3.4692    1.0000 </r>
       <r>    3.9391    1.0000 </r>
       <r>    4.7557    1.0000 </r>
       <r>    7.6640    0.0000 </r>
       <r>    8.0744    0.0000 </r>
       <r>    8.5324    0.0000 </r>
       <r>    8.8984    0.0000 </r>
       <r>    9.0207    0.0000 </r>
      </set>
      <set comment="kpoint 13">
       <r>   -5.4545    1.0000 </r>
       <r>   -4.8562    1.0000 </r>
       <r>   -2.2821    1.0000 </r>
       <r>   -2.0212    1.0000 </r>
       <r>   -1.9863    1.0000 </r>
       <r>   -1.6384    1.0000 </r>
       <r>    1.3726    1.0000 </r>
       <r>    1.7170    1.0000 </r>
       <r>    1.8610    1.0000 </r>
       <r>    1.9243    1.0000 </r>
       <r>    2.0443    1.0000 </r>
       <r>    2.7429    1.0000 </r>
       <r>    3.5707    1.0000 </r>
       <r>    3.5959    1.0000 </r>
       <r>    4.0994    1.0000 </r>
       <r>    4.1377    1.0000 </r>
       <r>    6.5560    0.0000 </r>
       <r>    6.9736    0.0000 </r>
       <r>    8.1351    0.0000 </r>
       <r>    9.0503    0.0000 </r>
       <r>    9.1693    0.0000 </r>
      </set>
      <set comment="kpoint 14">
       <r>   -5.3755    1.0000 </r>
       <r>   -4.7830    1.0000 </r>
       <r>   -2.7762    1.0000 </r>
       <r>   -2.5585    1.0000 </r>
       <r>   -1.4642    1.0000 </r>
       <r>   -1.1938    1.0000 </r>
       <r>    1.1479    1.0000 </r>
       <r>    1.5351    1.0000 </r>
       <r>    1.5907    1.0000 </r>
       <r>    2.2891    1.0000 </r>
       <r>    2.4831    1.0000 </r>
       <r>    2.5856    1.0000 </r>
       <r>    3.2577    1.0000 </r>
       <r>    3.6597    1.0000 </r>
       <r>    3.8052    1.0000 </r>
       <r>    4.4190    1.0000 </r>
       <r>    7.0415    0.0000 </r>
       <r>    7.4354    0.0000 </r>
       <r>    8.2080    0.0000 </r>
       <r>    8.6621    0.0000 </r>
       <r>   10.4103    0.0000 </r>
      </set>
      <set comment="kpoint 15">
       <r>   -5.1446    1.0000 </r>
       <r>   -4.5713    1.0000 </r>
       <r>   -3.4773    1.0000 </r>
       <r>   -3.1045    1.0000 </r>
       <r>   -0.9778    1.0000 </r>
       <r>   -0.5440    1.0000 </r>
       <r>    0.7123    1.0000 </r>
       <r>    1.4015    1.0000 </r>
       <r>    1.4599    1.0000 </r>
       <r>    1.8471    1.0000 </r>
       <r>    2.5525    1.0000 </r>
       <r>    2.9593    1.0000 </r>
       <r>    3.3083    1.0000 </r>
       <r>    3.4715    1.0000 </r>
       <r>    3.9460    1.0000 </r>
       <r>    4.7640    1.0000 </r>
       <r>    7.6238    0.0000 </r>
       <r>    8.1317    0.0000 </r>
       <r>    8.5364    0.0000 </r>
       <r>    8.9302    0.0000 </r>
       <r>    9.0557    0.0000 </r>
      </set>
      <set comment="kpoint 16">
       <r>   -4.8051    1.0000 </r>
       <r>   -4.2803    1.0000 </r>
       <r>   -4.0553    1.0000 </r>
       <r>   -3.5957    1.0000 </r>
       <r>   -0.4661    1.0000 </r>
       <r>   -0.0424    1.0000 </r>
       <r>    0.3208    1.0000 </r>
       <r>    0.8690    1.0000 </r>
       <r>    1.5634    1.0000 </r>
       <r>    1.9356    1.0000 </r>
       <r>    2.0435    1.0000 </r>
       <r>    2.4589    1.0000 </r>
       <r>    3.9168    1.0000 </r>
       <r>    4.0738    1.0000 </r>
       <r>    4.2191    1.0000 </r>
       <r>    4.7375    1.0000 </r>
       <r>    7.6316    0.0000 </r>
       <r>    8.2891    0.0000 </r>
       <r>    8.3453    0.0000 </r>
       <r>    8.4810    0.0000 </r>
       <r>    9.6680    0.0000 </r>
      </set>
      <set comment="kpoint 17">
       <r>   -6.0634    1.0000 </r>
       <r>   -3.2201    1.0000 </r>
       <r>   -3.0553    1.0000 </r>
       <r>   -2.4003    1.0000 </r>
       <r>   -1.7089    1.0000 </r>
       <r>   -1.1493    1.0000 </r>
       <r>   -0.9693    1.0000 </r>
       <r>    2.0719    1.0000 </r>
       <r>    2.6336    1.0000 </r>
       <r>    2.6485    1.0000 </r>
       <r>    2.6927    1.0000 </r>
       <r>    2.8280    1.0000 </r>
       <r>    2.9618    1.0000 </r>
       <r>    4.6410    1.0000 </r>
       <r>    4.9834    1.0000 </r>
       <r>    5.2654    1.0000 </r>
       <r>    6.3251    0.0057 </r>
       <r>    6.5114    0.0001 </r>
       <r>    6.7503    0.0000 </r>
       <r>    7.0114    0.0000 </r>
       <r>    8.5499    0.0000 </r>
      </set>
      <set comment="kpoint 18">
       <r>   -5.9796    1.0000 </r>
       <r>   -3.2166    1.0000 </r>
       <r>   -3.1834    1.0000 </r>
       <r>   -2.8428    1.0000 </r>
       <r>   -1.1900    1.0000 </r>
       <r>   -1.1743    1.0000 </r>
       <r>   -0.8166    1.0000 </r>
       <r>    2.1238    1.0000 </r>
       <r>    2.1822    1.0000 </r>
       <r>    2.3637    1.0000 </r>
       <r>    2.8515    1.0000 </r>
       <r>    3.0237    1.0000 </r>
       <r>    3.1354    1.0000 </r>
       <r>    3.8757    1.0000 </r>
       <r>    5.0442    1.0000 </r>
       <r>    5.4225    0.9999 </r>
       <r>    6.3924    0.0013 </r>
       <r>    6.4658    0.0002 </r>
       <r>    6.7327    0.0000 </r>
       <r>    7.6829    0.0000 </r>
       <r>    8.0433    0.0000 </r>
      </set>
      <set comment="kpoint 19">
       <r>   -5.7328    1.0000 </r>
       <r>   -3.9551    1.0000 </r>
       <r>   -3.0931    1.0000 </r>
       <r>   -2.8049    1.0000 </r>
       <r>   -1.2467    1.0000 </r>
       <r>   -1.2073    1.0000 </r>
       <r>    0.0744    1.0000 </r>
       <r>    1.8132    1.0000 </r>
       <r>    1.9139    1.0000 </r>
       <r>    2.5584    1.0000 </r>
       <r>    2.9221    1.0000 </r>
       <r>    2.9582    1.0000 </r>
       <r>    3.0532    1.0000 </r>
       <r>    3.1062    1.0000 </r>
       <r>    4.5618    1.0000 </r>
       <r>    5.0923    1.0000 </r>
       <r>    6.6804    0.0000 </r>
       <r>    7.0705    0.0000 </r>
       <r>    7.3519    0.0000 </r>
       <r>    7.9985    0.0000 </r>
       <r>    8.4809    0.0000 </r>
      </set>
      <set comment="kpoint 20">
       <r>   -5.3586    1.0000 </r>
       <r>   -4.6211    1.0000 </r>
       <r>   -3.0107    1.0000 </r>
       <r>   -2.6978    1.0000 </r>
       <r>   -1.3241    1.0000 </r>
       <r>   -1.3237    1.0000 </r>
       <r>    1.0203    1.0000 </r>
       <r>    1.6536    1.0000 </r>
       <r>    1.8149    1.0000 </r>
       <r>    1.9628    1.0000 </r>
       <r>    2.7152    1.0000 </r>
       <r>    2.7692    1.0000 </r>
       <r>    3.3713    1.0000 </r>
       <r>    3.3715    1.0000 </r>
       <r>    4.0933    1.0000 </r>
       <r>    4.2535    1.0000 </r>
       <r>    7.0415    0.0000 </r>
       <r>    7.6178    0.0000 </r>
       <r>    8.3238    0.0000 </r>
       <r>    8.5435    0.0000 </r>
       <r>    9.1147    0.0000 </r>
      </set>
      <set comment="kpoint 21">
       <r>   -5.8068    1.0000 </r>
       <r>   -4.0222    1.0000 </r>
       <r>   -2.9439    1.0000 </r>
       <r>   -2.5257    1.0000 </r>
       <r>   -1.4955    1.0000 </r>
       <r>   -1.1853    1.0000 </r>
       <r>    0.0240    1.0000 </r>
       <r>    1.6471    1.0000 </r>
       <r>    2.1129    1.0000 </r>
       <r>    2.5441    1.0000 </r>
       <r>    2.7135    1.0000 </r>
       <r>    2.8776    1.0000 </r>
       <r>    3.2370    1.0000 </r>
       <r>    3.6711    1.0000 </r>
       <r>    4.3501    1.0000 </r>
       <r>    4.8678    1.0000 </r>
       <r>    6.7346    0.0000 </r>
       <r>    6.9184    0.0000 </r>
       <r>    7.5409    0.0000 </r>
       <r>    7.9272    0.0000 </r>
       <r>    8.7455    0.0000 </r>
      </set>
      <set comment="kpoint 22">
       <r>   -5.7254    1.0000 </r>
       <r>   -3.9651    1.0000 </r>
       <r>   -3.0898    1.0000 </r>
       <r>   -2.8544    1.0000 </r>
       <r>   -1.2809    1.0000 </r>
       <r>   -0.9866    1.0000 </r>
       <r>   -0.1015    1.0000 </r>
       <r>    1.7617    1.0000 </r>
       <r>    1.8974    1.0000 </r>
       <r>    2.6204    1.0000 </r>
       <r>    2.7997    1.0000 </r>
       <r>    2.9833    1.0000 </r>
       <r>    3.0603    1.0000 </r>
       <r>    3.3465    1.0000 </r>
       <r>    4.6566    1.0000 </r>
       <r>    4.9207    1.0000 </r>
       <r>    6.7656    0.0000 </r>
       <r>    6.9912    0.0000 </r>
       <r>    7.2439    0.0000 </r>
       <r>    7.9904    0.0000 </r>
       <r>    8.4258    0.0000 </r>
      </set>
      <set comment="kpoint 23">
       <r>   -5.4861    1.0000 </r>
       <r>   -3.8806    1.0000 </r>
       <r>   -3.6847    1.0000 </r>
       <r>   -2.9527    1.0000 </r>
       <r>   -1.3135    1.0000 </r>
       <r>   -0.5419    1.0000 </r>
       <r>   -0.1881    1.0000 </r>
       <r>    1.6910    1.0000 </r>
       <r>    1.9562    1.0000 </r>
       <r>    2.3260    1.0000 </r>
       <r>    2.5507    1.0000 </r>
       <r>    3.1133    1.0000 </r>
       <r>    3.2695    1.0000 </r>
       <r>    3.4834    1.0000 </r>
       <r>    4.1834    1.0000 </r>
       <r>    5.1944    1.0000 </r>
       <r>    6.9959    0.0000 </r>
       <r>    7.2778    0.0000 </r>
       <r>    7.5473    0.0000 </r>
       <r>    7.9663    0.0000 </r>
       <r>    8.8379    0.0000 </r>
      </set>
      <set comment="kpoint 24">
       <r>   -5.1269    1.0000 </r>
       <r>   -4.4162    1.0000 </r>
       <r>   -3.5586    1.0000 </r>
       <r>   -3.0974    1.0000 </r>
       <r>   -1.2177    1.0000 </r>
       <r>   -0.8658    1.0000 </r>
       <r>    0.4510    1.0000 </r>
       <r>    1.2259    1.0000 </r>
       <r>    1.7927    1.0000 </r>
       <r>    2.1790    1.0000 </r>
       <r>    2.9059    1.0000 </r>
       <r>    3.2759    1.0000 </r>
       <r>    3.4243    1.0000 </r>
       <r>    3.5610    1.0000 </r>
       <r>    3.9234    1.0000 </r>
       <r>    4.6721    1.0000 </r>
       <r>    7.6043    0.0000 </r>
       <r>    7.7889    0.0000 </r>
       <r>    8.2216    0.0000 </r>
       <r>    8.6644    0.0000 </r>
       <r>   10.3392    0.0000 </r>
      </set>
      <set comment="kpoint 25">
       <r>   -5.3826    1.0000 </r>
       <r>   -4.7662    1.0000 </r>
       <r>   -2.7273    1.0000 </r>
       <r>   -2.6463    1.0000 </r>
       <r>   -1.3966    1.0000 </r>
       <r>   -1.2390    1.0000 </r>
       <r>    1.0681    1.0000 </r>
       <r>    1.4898    1.0000 </r>
       <r>    1.6710    1.0000 </r>
       <r>    2.3907    1.0000 </r>
       <r>    2.5114    1.0000 </r>
       <r>    2.5979    1.0000 </r>
       <r>    3.2733    1.0000 </r>
       <r>    3.7066    1.0000 </r>
       <r>    3.8640    1.0000 </r>
       <r>    4.1858    1.0000 </r>
       <r>    7.0121    0.0000 </r>
       <r>    7.4972    0.0000 </r>
       <r>    8.1983    0.0000 </r>
       <r>    9.3224    0.0000 </r>
       <r>    9.4287    0.0000 </r>
      </set>
      <set comment="kpoint 26">
       <r>   -5.3056    1.0000 </r>
       <r>   -4.6947    1.0000 </r>
       <r>   -2.9805    1.0000 </r>
       <r>   -2.7962    1.0000 </r>
       <r>   -1.3631    1.0000 </r>
       <r>   -1.0493    1.0000 </r>
       <r>    0.8182    1.0000 </r>
       <r>    1.5837    1.0000 </r>
       <r>    1.6558    1.0000 </r>
       <r>    2.1123    1.0000 </r>
       <r>    2.6369    1.0000 </r>
       <r>    2.8126    1.0000 </r>
       <r>    3.4163    1.0000 </r>
       <r>    3.6970    1.0000 </r>
       <r>    3.9406    1.0000 </r>
       <r>    4.2558    1.0000 </r>
       <r>    7.1887    0.0000 </r>
       <r>    7.6394    0.0000 </r>
       <r>    8.1764    0.0000 </r>
       <r>    8.4488    0.0000 </r>
       <r>   10.3258    0.0000 </r>
      </set>
      <set comment="kpoint 27">
       <r>   -5.0815    1.0000 </r>
       <r>   -4.4893    1.0000 </r>
       <r>   -3.5241    1.0000 </r>
       <r>   -3.1510    1.0000 </r>
       <r>   -1.1978    1.0000 </r>
       <r>   -0.6640    1.0000 </r>
       <r>    0.2854    1.0000 </r>
       <r>    1.2132    1.0000 </r>
       <r>    1.7794    1.0000 </r>
       <r>    2.0135    1.0000 </r>
       <r>    3.0240    1.0000 </r>
       <r>    3.2023    1.0000 </r>
       <r>    3.5048    1.0000 </r>
       <r>    3.6470    1.0000 </r>
       <r>    3.8762    1.0000 </r>
       <r>    4.7332    1.0000 </r>
       <r>    7.6173    0.0000 </r>
       <r>    7.9256    0.0000 </r>
       <r>    8.1242    0.0000 </r>
       <r>    8.4896    0.0000 </r>
       <r>    9.0300    0.0000 </r>
      </set>
      <set comment="kpoint 28">
       <r>   -4.7553    1.0000 </r>
       <r>   -4.2186    1.0000 </r>
       <r>   -4.0319    1.0000 </r>
       <r>   -3.5606    1.0000 </r>
       <r>   -0.8808    1.0000 </r>
       <r>   -0.3818    1.0000 </r>
       <r>   -0.0674    1.0000 </r>
       <r>    0.5375    1.0000 </r>
       <r>    2.0631    1.0000 </r>
       <r>    2.3499    1.0000 </r>
       <r>    2.6239    1.0000 </r>
       <r>    2.9594    1.0000 </r>
       <r>    3.9429    1.0000 </r>
       <r>    4.1009    1.0000 </r>
       <r>    4.2097    1.0000 </r>
       <r>    4.7492    1.0000 </r>
       <r>    7.6786    0.0000 </r>
       <r>    8.1560    0.0000 </r>
       <r>    8.3498    0.0000 </r>
       <r>    8.4477    0.0000 </r>
       <r>    8.7882    0.0000 </r>
      </set>
      <set comment="kpoint 29">
       <r>   -5.3633    1.0000 </r>
       <r>   -4.7956    1.0000 </r>
       <r>   -2.8722    1.0000 </r>
       <r>   -2.4194    1.0000 </r>
       <r>   -1.6457    1.0000 </r>
       <r>   -1.0386    1.0000 </r>
       <r>    1.2982    1.0000 </r>
       <r>    1.3675    1.0000 </r>
       <r>    1.7602    1.0000 </r>
       <r>    2.1733    1.0000 </r>
       <r>    2.3129    1.0000 </r>
       <r>    2.6871    1.0000 </r>
       <r>    3.2145    1.0000 </r>
       <r>    3.5510    1.0000 </r>
       <r>    3.7914    1.0000 </r>
       <r>    4.5955    1.0000 </r>
       <r>    7.0907    0.0000 </r>
       <r>    7.4164    0.0000 </r>
       <r>    8.4265    0.0000 </r>
       <r>    8.5107    0.0000 </r>
       <r>    9.4132    0.0000 </r>
      </set>
      <set comment="kpoint 30">
       <r>   -5.2853    1.0000 </r>
       <r>   -4.7259    1.0000 </r>
       <r>   -2.9792    1.0000 </r>
       <r>   -2.8058    1.0000 </r>
       <r>   -1.3465    1.0000 </r>
       <r>   -1.0251    1.0000 </r>
       <r>    1.0443    1.0000 </r>
       <r>    1.4629    1.0000 </r>
       <r>    1.6559    1.0000 </r>
       <r>    1.8658    1.0000 </r>
       <r>    2.6609    1.0000 </r>
       <r>    2.8547    1.0000 </r>
       <r>    3.1623    1.0000 </r>
       <r>    3.7017    1.0000 </r>
       <r>    4.1237    1.0000 </r>
       <r>    4.3748    1.0000 </r>
       <r>    7.2131    0.0000 </r>
       <r>    7.6577    0.0000 </r>
       <r>    8.3449    0.0000 </r>
       <r>    8.6064    0.0000 </r>
       <r>    9.0471    0.0000 </r>
      </set>
      <set comment="kpoint 31">
       <r>   -5.0576    1.0000 </r>
       <r>   -4.5264    1.0000 </r>
       <r>   -3.4411    1.0000 </r>
       <r>   -3.2696    1.0000 </r>
       <r>   -0.9543    1.0000 </r>
       <r>   -0.8409    1.0000 </r>
       <r>    0.4918    1.0000 </r>
       <r>    1.0218    1.0000 </r>
       <r>    1.6762    1.0000 </r>
       <r>    2.0048    1.0000 </r>
       <r>    2.7581    1.0000 </r>
       <r>    3.3155    1.0000 </r>
       <r>    3.4869    1.0000 </r>
       <r>    3.7930    1.0000 </r>
       <r>    4.0625    1.0000 </r>
       <r>    4.6365    1.0000 </r>
       <r>    7.6690    0.0000 </r>
       <r>    7.8786    0.0000 </r>
       <r>    8.2818    0.0000 </r>
       <r>    8.7338    0.0000 </r>
       <r>    8.9002    0.0000 </r>
      </set>
      <set comment="kpoint 32">
       <r>   -4.7259    1.0000 </r>
       <r>   -4.2512    1.0000 </r>
       <r>   -4.0000    1.0000 </r>
       <r>   -3.6340    1.0000 </r>
       <r>   -0.6537    1.0000 </r>
       <r>   -0.3996    1.0000 </r>
       <r>   -0.0426    1.0000 </r>
       <r>    0.3807    1.0000 </r>
       <r>    1.8851    1.0000 </r>
       <r>    2.3590    1.0000 </r>
       <r>    2.5148    1.0000 </r>
       <r>    3.0888    1.0000 </r>
       <r>    3.9876    1.0000 </r>
       <r>    4.1337    1.0000 </r>
       <r>    4.2936    1.0000 </r>
       <r>    4.7108    1.0000 </r>
       <r>    7.6986    0.0000 </r>
       <r>    8.1891    0.0000 </r>
       <r>    8.2362    0.0000 </r>
       <r>    8.4362    0.0000 </r>
       <r>    9.1983    0.0000 </r>
      </set>
      <set comment="kpoint 33">
       <r>   -5.7950    1.0000 </r>
       <r>   -4.0681    1.0000 </r>
       <r>   -3.0387    1.0000 </r>
       <r>   -2.2019    1.0000 </r>
       <r>   -1.9057    1.0000 </r>
       <r>   -0.9321    1.0000 </r>
       <r>    0.2114    1.0000 </r>
       <r>    1.4638    1.0000 </r>
       <r>    2.1170    1.0000 </r>
       <r>    2.3842    1.0000 </r>
       <r>    2.8330    1.0000 </r>
       <r>    2.9557    1.0000 </r>
       <r>    3.0635    1.0000 </r>
       <r>    3.2273    1.0000 </r>
       <r>    4.4149    1.0000 </r>
       <r>    5.3923    1.0000 </r>
       <r>    6.8044    0.0000 </r>
       <r>    7.2527    0.0000 </r>
       <r>    7.5212    0.0000 </r>
       <r>    7.8976    0.0000 </r>
       <r>    8.0545    0.0000 </r>
      </set>
      <set comment="kpoint 34">
       <r>   -5.7129    1.0000 </r>
       <r>   -4.0146    1.0000 </r>
       <r>   -3.0679    1.0000 </r>
       <r>   -2.8873    1.0000 </r>
       <r>   -1.2518    1.0000 </r>
       <r>   -0.9269    1.0000 </r>
       <r>    0.0910    1.0000 </r>
       <r>    1.6176    1.0000 </r>
       <r>    1.7635    1.0000 </r>
       <r>    2.4452    1.0000 </r>
       <r>    2.6982    1.0000 </r>
       <r>    2.9595    1.0000 </r>
       <r>    3.0926    1.0000 </r>
       <r>    3.3389    1.0000 </r>
       <r>    4.7135    1.0000 </r>
       <r>    5.1876    1.0000 </r>
       <r>    6.8122    0.0000 </r>
       <r>    7.1859    0.0000 </r>
       <r>    7.3720    0.0000 </r>
       <r>    8.1303    0.0000 </r>
       <r>    8.3453    0.0000 </r>
      </set>
      <set comment="kpoint 35">
       <r>   -5.4716    1.0000 </r>
       <r>   -3.9137    1.0000 </r>
       <r>   -3.6557    1.0000 </r>
       <r>   -3.0782    1.0000 </r>
       <r>   -1.0527    1.0000 </r>
       <r>   -0.4906    1.0000 </r>
       <r>   -0.1506    1.0000 </r>
       <r>    1.5273    1.0000 </r>
       <r>    1.7884    1.0000 </r>
       <r>    2.1383    1.0000 </r>
       <r>    2.2957    1.0000 </r>
       <r>    3.2827    1.0000 </r>
       <r>    3.4420    1.0000 </r>
       <r>    3.4994    1.0000 </r>
       <r>    4.3865    1.0000 </r>
       <r>    5.1462    1.0000 </r>
       <r>    7.0373    0.0000 </r>
       <r>    7.4480    0.0000 </r>
       <r>    7.6314    0.0000 </r>
       <r>    8.0719    0.0000 </r>
       <r>    8.9907    0.0000 </r>
      </set>
      <set comment="kpoint 36">
       <r>   -5.1086    1.0000 </r>
       <r>   -4.3897    1.0000 </r>
       <r>   -3.6309    1.0000 </r>
       <r>   -3.1988    1.0000 </r>
       <r>   -0.9541    1.0000 </r>
       <r>   -0.6595    1.0000 </r>
       <r>    0.3206    1.0000 </r>
       <r>    1.0939    1.0000 </r>
       <r>    1.5689    1.0000 </r>
       <r>    1.9171    1.0000 </r>
       <r>    2.9033    1.0000 </r>
       <r>    3.3828    1.0000 </r>
       <r>    3.5400    1.0000 </r>
       <r>    3.6042    1.0000 </r>
       <r>    4.0423    1.0000 </r>
       <r>    4.7032    1.0000 </r>
       <r>    7.7478    0.0000 </r>
       <r>    7.9185    0.0000 </r>
       <r>    8.2774    0.0000 </r>
       <r>    8.6183    0.0000 </r>
       <r>    9.0517    0.0000 </r>
      </set>
      <set comment="kpoint 37">
       <r>   -6.0577    1.0000 </r>
       <r>   -3.3296    1.0000 </r>
       <r>   -3.0286    1.0000 </r>
       <r>   -2.1340    1.0000 </r>
       <r>   -2.0463    1.0000 </r>
       <r>   -0.9610    1.0000 </r>
       <r>   -0.8871    1.0000 </r>
       <r>    1.8639    1.0000 </r>
       <r>    2.5794    1.0000 </r>
       <r>    2.5826    1.0000 </r>
       <r>    2.7381    1.0000 </r>
       <r>    2.8153    1.0000 </r>
       <r>    3.0720    1.0000 </r>
       <r>    4.1303    1.0000 </r>
       <r>    5.0354    1.0000 </r>
       <r>    5.8683    0.7586 </r>
       <r>    6.5986    0.0000 </r>
       <r>    6.6743    0.0000 </r>
       <r>    6.7131    0.0000 </r>
       <r>    7.0357    0.0000 </r>
       <r>    7.3269    0.0000 </r>
      </set>
      <set comment="kpoint 38">
       <r>   -5.9737    1.0000 </r>
       <r>   -3.3484    1.0000 </r>
       <r>   -2.9870    1.0000 </r>
       <r>   -2.9786    1.0000 </r>
       <r>   -1.2480    1.0000 </r>
       <r>   -0.9151    1.0000 </r>
       <r>   -0.8180    1.0000 </r>
       <r>    1.9545    1.0000 </r>
       <r>    2.1430    1.0000 </r>
       <r>    2.1455    1.0000 </r>
       <r>    3.0399    1.0000 </r>
       <r>    3.0430    1.0000 </r>
       <r>    3.1813    1.0000 </r>
       <r>    3.6162    1.0000 </r>
       <r>    5.2069    1.0000 </r>
       <r>    5.5579    0.9981 </r>
       <r>    6.4813    0.0001 </r>
       <r>    6.6728    0.0000 </r>
       <r>    6.7645    0.0000 </r>
       <r>    7.6953    0.0000 </r>
       <r>    7.8186    0.0000 </r>
      </set>
      <set comment="kpoint 39">
       <r>   -5.7259    1.0000 </r>
       <r>   -3.9384    1.0000 </r>
       <r>   -3.1576    1.0000 </r>
       <r>   -2.8834    1.0000 </r>
       <r>   -1.1293    1.0000 </r>
       <r>   -1.0008    1.0000 </r>
       <r>    0.0277    1.0000 </r>
       <r>    1.6601    1.0000 </r>
       <r>    1.7596    1.0000 </r>
       <r>    2.3430    1.0000 </r>
       <r>    2.8182    1.0000 </r>
       <r>    3.0105    1.0000 </r>
       <r>    3.0650    1.0000 </r>
       <r>    3.3501    1.0000 </r>
       <r>    4.8357    1.0000 </r>
       <r>    4.9582    1.0000 </r>
       <r>    6.9481    0.0000 </r>
       <r>    7.1056    0.0000 </r>
       <r>    7.2930    0.0000 </r>
       <r>    7.9724    0.0000 </r>
       <r>    8.3323    0.0000 </r>
      </set>
      <set comment="kpoint 40">
       <r>   -5.3501    1.0000 </r>
       <r>   -4.6084    1.0000 </r>
       <r>   -3.1006    1.0000 </r>
       <r>   -2.7866    1.0000 </r>
       <r>   -1.1650    1.0000 </r>
       <r>   -1.0970    1.0000 </r>
       <r>    0.9453    1.0000 </r>
       <r>    1.4596    1.0000 </r>
       <r>    1.6053    1.0000 </r>
       <r>    1.8538    1.0000 </r>
       <r>    2.8075    1.0000 </r>
       <r>    2.9093    1.0000 </r>
       <r>    3.1264    1.0000 </r>
       <r>    3.6526    1.0000 </r>
       <r>    4.0139    1.0000 </r>
       <r>    4.4157    1.0000 </r>
       <r>    7.2664    0.0000 </r>
       <r>    7.7364    0.0000 </r>
       <r>    8.3386    0.0000 </r>
       <r>    8.5361    0.0000 </r>
       <r>    9.1017    0.0000 </r>
      </set>
      <set comment="kpoint 41">
       <r>   -5.5598    1.0000 </r>
       <r>   -3.9019    1.0000 </r>
       <r>   -3.6800    1.0000 </r>
       <r>   -2.8650    1.0000 </r>
       <r>   -1.1396    1.0000 </r>
       <r>   -0.3204    1.0000 </r>
       <r>   -0.2811    1.0000 </r>
       <r>    1.3494    1.0000 </r>
       <r>    2.1846    1.0000 </r>
       <r>    2.3498    1.0000 </r>
       <r>    2.7780    1.0000 </r>
       <r>    3.0142    1.0000 </r>
       <r>    3.1893    1.0000 </r>
       <r>    3.4438    1.0000 </r>
       <r>    3.7086    1.0000 </r>
       <r>    4.9968    1.0000 </r>
       <r>    6.7863    0.0000 </r>
       <r>    7.7812    0.0000 </r>
       <r>    7.9230    0.0000 </r>
       <r>    8.4541    0.0000 </r>
       <r>    8.6363    0.0000 </r>
      </set>
      <set comment="kpoint 42">
       <r>   -5.4817    1.0000 </r>
       <r>   -3.8615    1.0000 </r>
       <r>   -3.6409    1.0000 </r>
       <r>   -3.1096    1.0000 </r>
       <r>   -1.0167    1.0000 </r>
       <r>   -0.4986    1.0000 </r>
       <r>   -0.4829    1.0000 </r>
       <r>    1.6174    1.0000 </r>
       <r>    2.1092    1.0000 </r>
       <r>    2.3440    1.0000 </r>
       <r>    2.4099    1.0000 </r>
       <r>    3.1952    1.0000 </r>
       <r>    3.2997    1.0000 </r>
       <r>    3.5671    1.0000 </r>
       <r>    4.3495    1.0000 </r>
       <r>    4.8878    1.0000 </r>
       <r>    6.8747    0.0000 </r>
       <r>    7.3124    0.0000 </r>
       <r>    7.5659    0.0000 </r>
       <r>    7.9788    0.0000 </r>
       <r>    9.1264    0.0000 </r>
      </set>
      <set comment="kpoint 43">
       <r>   -5.2538    1.0000 </r>
       <r>   -3.7618    1.0000 </r>
       <r>   -3.7499    1.0000 </r>
       <r>   -3.4124    1.0000 </r>
       <r>   -1.0248    1.0000 </r>
       <r>   -0.8624    1.0000 </r>
       <r>   -0.5838    1.0000 </r>
       <r>    1.2211    1.0000 </r>
       <r>    2.4122    1.0000 </r>
       <r>    2.4194    1.0000 </r>
       <r>    2.7176    1.0000 </r>
       <r>    3.3825    1.0000 </r>
       <r>    3.6139    1.0000 </r>
       <r>    3.7357    1.0000 </r>
       <r>    4.6099    1.0000 </r>
       <r>    4.9427    1.0000 </r>
       <r>    7.0991    0.0000 </r>
       <r>    7.2093    0.0000 </r>
       <r>    7.4742    0.0000 </r>
       <r>    7.4992    0.0000 </r>
       <r>   10.9034    0.0000 </r>
      </set>
      <set comment="kpoint 44">
       <r>   -4.9176    1.0000 </r>
       <r>   -4.2487    1.0000 </r>
       <r>   -3.6701    1.0000 </r>
       <r>   -3.3238    1.0000 </r>
       <r>   -1.3201    1.0000 </r>
       <r>   -1.1341    1.0000 </r>
       <r>   -0.1714    1.0000 </r>
       <r>    0.5094    1.0000 </r>
       <r>    2.5109    1.0000 </r>
       <r>    2.8327    1.0000 </r>
       <r>    3.5531    1.0000 </r>
       <r>    3.5668    1.0000 </r>
       <r>    3.6665    1.0000 </r>
       <r>    3.7760    1.0000 </r>
       <r>    4.3011    1.0000 </r>
       <r>    4.5331    1.0000 </r>
       <r>    7.4641    0.0000 </r>
       <r>    7.7484    0.0000 </r>
       <r>    7.9088    0.0000 </r>
       <r>    8.1429    0.0000 </r>
       <r>    8.7323    0.0000 </r>
      </set>
      <set comment="kpoint 45">
       <r>   -5.1516    1.0000 </r>
       <r>   -4.5299    1.0000 </r>
       <r>   -3.4445    1.0000 </r>
       <r>   -3.2241    1.0000 </r>
       <r>   -0.7518    1.0000 </r>
       <r>   -0.7054    1.0000 </r>
       <r>    0.5495    1.0000 </r>
       <r>    1.3372    1.0000 </r>
       <r>    1.6915    1.0000 </r>
       <r>    1.9392    1.0000 </r>
       <r>    2.6403    1.0000 </r>
       <r>    3.0671    1.0000 </r>
       <r>    3.1919    1.0000 </r>
       <r>    3.2971    1.0000 </r>
       <r>    4.1373    1.0000 </r>
       <r>    4.5132    1.0000 </r>
       <r>    7.4920    0.0000 </r>
       <r>    8.1134    0.0000 </r>
       <r>    8.6127    0.0000 </r>
       <r>    8.8641    0.0000 </r>
       <r>    9.1658    0.0000 </r>
      </set>
      <set comment="kpoint 46">
       <r>   -5.0803    1.0000 </r>
       <r>   -4.4668    1.0000 </r>
       <r>   -3.4504    1.0000 </r>
       <r>   -3.3075    1.0000 </r>
       <r>   -0.9429    1.0000 </r>
       <r>   -0.8397    1.0000 </r>
       <r>    0.2229    1.0000 </r>
       <r>    1.2413    1.0000 </r>
       <r>    1.8233    1.0000 </r>
       <r>    2.0320    1.0000 </r>
       <r>    2.9611    1.0000 </r>
       <r>    3.2656    1.0000 </r>
       <r>    3.4191    1.0000 </r>
       <r>    3.6545    1.0000 </r>
       <r>    4.1475    1.0000 </r>
       <r>    4.4520    1.0000 </r>
       <r>    7.5519    0.0000 </r>
       <r>    7.8178    0.0000 </r>
       <r>    8.2069    0.0000 </r>
       <r>    8.6305    0.0000 </r>
       <r>    9.0938    0.0000 </r>
      </set>
      <set comment="kpoint 47">
       <r>   -4.8756    1.0000 </r>
       <r>   -4.2916    1.0000 </r>
       <r>   -3.6252    1.0000 </r>
       <r>   -3.4416    1.0000 </r>
       <r>   -1.2452    1.0000 </r>
       <r>   -0.9161    1.0000 </r>
       <r>   -0.3692    1.0000 </r>
       <r>    0.5054    1.0000 </r>
       <r>    2.5298    1.0000 </r>
       <r>    2.6091    1.0000 </r>
       <r>    3.4615    1.0000 </r>
       <r>    3.5027    1.0000 </r>
       <r>    3.8034    1.0000 </r>
       <r>    4.0590    1.0000 </r>
       <r>    4.2504    1.0000 </r>
       <r>    4.5387    1.0000 </r>
       <r>    7.5443    0.0000 </r>
       <r>    7.6448    0.0000 </r>
       <r>    7.9101    0.0000 </r>
       <r>    8.0564    0.0000 </r>
       <r>    8.9454    0.0000 </r>
      </set>
      <set comment="kpoint 48">
       <r>   -4.5899    1.0000 </r>
       <r>   -4.0845    1.0000 </r>
       <r>   -3.9636    1.0000 </r>
       <r>   -3.5726    1.0000 </r>
       <r>   -1.3100    1.0000 </r>
       <r>   -0.9287    1.0000 </r>
       <r>   -0.6695    1.0000 </r>
       <r>   -0.1288    1.0000 </r>
       <r>    3.0032    1.0000 </r>
       <r>    3.2308    1.0000 </r>
       <r>    3.5303    1.0000 </r>
       <r>    3.8161    1.0000 </r>
       <r>    4.0588    1.0000 </r>
       <r>    4.2024    1.0000 </r>
       <r>    4.2745    1.0000 </r>
       <r>    4.7341    1.0000 </r>
       <r>    7.5256    0.0000 </r>
       <r>    7.7122    0.0000 </r>
       <r>    7.9588    0.0000 </r>
       <r>    8.1706    0.0000 </r>
       <r>    8.6783    0.0000 </r>
      </set>
      <set comment="kpoint 49">
       <r>   -5.1106    1.0000 </r>
       <r>   -4.5939    1.0000 </r>
       <r>   -3.5681    1.0000 </r>
       <r>   -3.0289    1.0000 </r>
       <r>   -1.1555    1.0000 </r>
       <r>   -0.3244    1.0000 </r>
       <r>    0.9200    1.0000 </r>
       <r>    1.2153    1.0000 </r>
       <r>    1.5393    1.0000 </r>
       <r>    1.7506    1.0000 </r>
       <r>    2.5831    1.0000 </r>
       <r>    2.9821    1.0000 </r>
       <r>    3.1464    1.0000 </r>
       <r>    3.4903    1.0000 </r>
       <r>    3.7567    1.0000 </r>
       <r>    4.9758    1.0000 </r>
       <r>    7.8405    0.0000 </r>
       <r>    8.2177    0.0000 </r>
       <r>    8.4600    0.0000 </r>
       <r>    8.7608    0.0000 </r>
       <r>    9.1410    0.0000 </r>
      </set>
      <set comment="kpoint 50">
       <r>   -5.0370    1.0000 </r>
       <r>   -4.5350    1.0000 </r>
       <r>   -3.5690    1.0000 </r>
       <r>   -3.1373    1.0000 </r>
       <r>   -1.2360    1.0000 </r>
       <r>   -0.5586    1.0000 </r>
       <r>    0.5421    1.0000 </r>
       <r>    0.9545    1.0000 </r>
       <r>    1.7322    1.0000 </r>
       <r>    2.0277    1.0000 </r>
       <r>    2.8851    1.0000 </r>
       <r>    3.1992    1.0000 </r>
       <r>    3.5484    1.0000 </r>
       <r>    3.6205    1.0000 </r>
       <r>    3.8139    1.0000 </r>
       <r>    4.8913    1.0000 </r>
       <r>    7.8798    0.0000 </r>
       <r>    7.9023    0.0000 </r>
       <r>    8.1997    0.0000 </r>
       <r>    8.6557    0.0000 </r>
       <r>    8.8976    0.0000 </r>
      </set>
      <set comment="kpoint 51">
       <r>   -4.8246    1.0000 </r>
       <r>   -4.3727    1.0000 </r>
       <r>   -3.6035    1.0000 </r>
       <r>   -3.4627    1.0000 </r>
       <r>   -1.2330    1.0000 </r>
       <r>   -0.8969    1.0000 </r>
       <r>   -0.0967    1.0000 </r>
       <r>    0.2642    1.0000 </r>
       <r>    2.4288    1.0000 </r>
       <r>    2.5381    1.0000 </r>
       <r>    3.2175    1.0000 </r>
       <r>    3.7220    1.0000 </r>
       <r>    3.7973    1.0000 </r>
       <r>    4.0304    1.0000 </r>
       <r>    4.3022    1.0000 </r>
       <r>    4.6784    1.0000 </r>
       <r>    7.6657    0.0000 </r>
       <r>    7.7219    0.0000 </r>
       <r>    8.0165    0.0000 </r>
       <r>    8.1947    0.0000 </r>
       <r>    8.8206    0.0000 </r>
      </set>
      <set comment="kpoint 52">
       <r>   -4.5280    1.0000 </r>
       <r>   -4.1656    1.0000 </r>
       <r>   -3.8835    1.0000 </r>
       <r>   -3.7015    1.0000 </r>
       <r>   -1.0297    1.0000 </r>
       <r>   -0.9620    1.0000 </r>
       <r>   -0.6115    1.0000 </r>
       <r>   -0.3359    1.0000 </r>
       <r>    2.7469    1.0000 </r>
       <r>    3.2220    1.0000 </r>
       <r>    3.3723    1.0000 </r>
       <r>    3.9324    1.0000 </r>
       <r>    4.1363    1.0000 </r>
       <r>    4.2804    1.0000 </r>
       <r>    4.4332    1.0000 </r>
       <r>    4.7212    1.0000 </r>
       <r>    7.6185    0.0000 </r>
       <r>    7.7614    0.0000 </r>
       <r>    7.8737    0.0000 </r>
       <r>    8.0771    0.0000 </r>
       <r>    8.9110    0.0000 </r>
      </set>
      <set comment="kpoint 53">
       <r>   -5.5348    1.0000 </r>
       <r>   -4.0174    1.0000 </r>
       <r>   -3.7235    1.0000 </r>
       <r>   -2.5931    1.0000 </r>
       <r>   -1.5591    1.0000 </r>
       <r>    0.0146    1.0000 </r>
       <r>    0.0363    1.0000 </r>
       <r>    1.2209    1.0000 </r>
       <r>    2.1562    1.0000 </r>
       <r>    2.2542    1.0000 </r>
       <r>    2.3936    1.0000 </r>
       <r>    2.7803    1.0000 </r>
       <r>    3.1254    1.0000 </r>
       <r>    3.4662    1.0000 </r>
       <r>    3.7759    1.0000 </r>
       <r>    5.5337    0.9989 </r>
       <r>    7.1281    0.0000 </r>
       <r>    7.9040    0.0000 </r>
       <r>    7.9539    0.0000 </r>
       <r>    8.5093    0.0000 </r>
       <r>    8.7933    0.0000 </r>
      </set>
      <set comment="kpoint 54">
       <r>   -5.4553    1.0000 </r>
       <r>   -3.9850    1.0000 </r>
       <r>   -3.6783    1.0000 </r>
       <r>   -2.9442    1.0000 </r>
       <r>   -1.3223    1.0000 </r>
       <r>   -0.2203    1.0000 </r>
       <r>   -0.1434    1.0000 </r>
       <r>    1.4601    1.0000 </r>
       <r>    1.8874    1.0000 </r>
       <r>    2.2073    1.0000 </r>
       <r>    2.2349    1.0000 </r>
       <r>    3.1695    1.0000 </r>
       <r>    3.3337    1.0000 </r>
       <r>    3.5446    1.0000 </r>
       <r>    4.2344    1.0000 </r>
       <r>    5.3936    1.0000 </r>
       <r>    7.2205    0.0000 </r>
       <r>    7.3987    0.0000 </r>
       <r>    7.5779    0.0000 </r>
       <r>    8.0800    0.0000 </r>
       <r>    9.4288    0.0000 </r>
      </set>
      <set comment="kpoint 55">
       <r>   -5.2229    1.0000 </r>
       <r>   -3.9212    1.0000 </r>
       <r>   -3.5653    1.0000 </r>
       <r>   -3.5535    1.0000 </r>
       <r>   -0.9406    1.0000 </r>
       <r>   -0.6692    1.0000 </r>
       <r>   -0.4789    1.0000 </r>
       <r>    1.0074    1.0000 </r>
       <r>    2.1102    1.0000 </r>
       <r>    2.3960    1.0000 </r>
       <r>    2.3988    1.0000 </r>
       <r>    3.6344    1.0000 </r>
       <r>    3.6747    1.0000 </r>
       <r>    3.7774    1.0000 </r>
       <r>    4.6921    1.0000 </r>
       <r>    5.0503    1.0000 </r>
       <r>    7.2560    0.0000 </r>
       <r>    7.3813    0.0000 </r>
       <r>    7.4633    0.0000 </r>
       <r>    7.6432    0.0000 </r>
       <r>    9.0093    0.0000 </r>
      </set>
      <set comment="kpoint 56">
       <r>   -4.8786    1.0000 </r>
       <r>   -4.1946    1.0000 </r>
       <r>   -3.7838    1.0000 </r>
       <r>   -3.4590    1.0000 </r>
       <r>   -0.9915    1.0000 </r>
       <r>   -0.8579    1.0000 </r>
       <r>   -0.3593    1.0000 </r>
       <r>    0.3286    1.0000 </r>
       <r>    2.1636    1.0000 </r>
       <r>    2.5460    1.0000 </r>
       <r>    3.3463    1.0000 </r>
       <r>    3.7806    1.0000 </r>
       <r>    3.8956    1.0000 </r>
       <r>    3.9779    1.0000 </r>
       <r>    4.2946    1.0000 </r>
       <r>    4.6884    1.0000 </r>
       <r>    7.6687    0.0000 </r>
       <r>    7.8820    0.0000 </r>
       <r>    7.8831    0.0000 </r>
       <r>    8.0747    0.0000 </r>
       <r>    9.1295    0.0000 </r>
      </set>
      <set comment="kpoint 57">
       <r>   -4.7750    1.0000 </r>
       <r>   -4.2527    1.0000 </r>
       <r>   -4.0150    1.0000 </r>
       <r>   -3.7436    1.0000 </r>
       <r>   -0.2064    1.0000 </r>
       <r>   -0.0525    1.0000 </r>
       <r>   -0.0340    1.0000 </r>
       <r>    1.0473    1.0000 </r>
       <r>    1.6043    1.0000 </r>
       <r>    1.9500    1.0000 </r>
       <r>    2.1169    1.0000 </r>
       <r>    2.4697    1.0000 </r>
       <r>    3.7122    1.0000 </r>
       <r>    4.0057    1.0000 </r>
       <r>    4.4839    1.0000 </r>
       <r>    4.5246    1.0000 </r>
       <r>    7.4508    0.0000 </r>
       <r>    8.2558    0.0000 </r>
       <r>    8.4049    0.0000 </r>
       <r>    8.8261    0.0000 </r>
       <r>    9.4873    0.0000 </r>
      </set>
      <set comment="kpoint 58">
       <r>   -4.7159    1.0000 </r>
       <r>   -4.2112    1.0000 </r>
       <r>   -3.9652    1.0000 </r>
       <r>   -3.7408    1.0000 </r>
       <r>   -0.5379    1.0000 </r>
       <r>   -0.4083    1.0000 </r>
       <r>   -0.3496    1.0000 </r>
       <r>    0.5741    1.0000 </r>
       <r>    2.0887    1.0000 </r>
       <r>    2.4155    1.0000 </r>
       <r>    2.5339    1.0000 </r>
       <r>    3.0783    1.0000 </r>
       <r>    3.7484    1.0000 </r>
       <r>    4.0376    1.0000 </r>
       <r>    4.5203    1.0000 </r>
       <r>    4.5238    1.0000 </r>
       <r>    7.5006    0.0000 </r>
       <r>    8.1568    0.0000 </r>
       <r>    8.3782    0.0000 </r>
       <r>    8.6413    0.0000 </r>
       <r>    9.1062    0.0000 </r>
      </set>
      <set comment="kpoint 59">
       <r>   -4.5537    1.0000 </r>
       <r>   -4.1087    1.0000 </r>
       <r>   -3.8590    1.0000 </r>
       <r>   -3.7442    1.0000 </r>
       <r>   -1.0556    1.0000 </r>
       <r>   -0.9061    1.0000 </r>
       <r>   -0.8762    1.0000 </r>
       <r>   -0.1396    1.0000 </r>
       <r>    3.0693    1.0000 </r>
       <r>    3.3110    1.0000 </r>
       <r>    3.3111    1.0000 </r>
       <r>    3.8499    1.0000 </r>
       <r>    4.0348    1.0000 </r>
       <r>    4.1239    1.0000 </r>
       <r>    4.5021    1.0000 </r>
       <r>    4.6220    1.0000 </r>
       <r>    7.4638    0.0000 </r>
       <r>    7.7293    0.0000 </r>
       <r>    8.0060    0.0000 </r>
       <r>    8.0293    0.0000 </r>
       <r>    8.8639    0.0000 </r>
      </set>
      <set comment="kpoint 60">
       <r>   -4.3582    1.0000 </r>
       <r>   -4.0146    1.0000 </r>
       <r>   -3.9012    1.0000 </r>
       <r>   -3.6683    1.0000 </r>
       <r>   -1.4406    1.0000 </r>
       <r>   -1.2229    1.0000 </r>
       <r>   -1.0552    1.0000 </r>
       <r>   -0.6663    1.0000 </r>
       <r>    3.7820    1.0000 </r>
       <r>    3.9990    1.0000 </r>
       <r>    4.0113    1.0000 </r>
       <r>    4.1574    1.0000 </r>
       <r>    4.2869    1.0000 </r>
       <r>    4.4715    1.0000 </r>
       <r>    4.4840    1.0000 </r>
       <r>    4.7738    1.0000 </r>
       <r>    7.0578    0.0000 </r>
       <r>    7.3568    0.0000 </r>
       <r>    7.5818    0.0000 </r>
       <r>    8.8125    0.0000 </r>
       <r>    8.9223    0.0000 </r>
      </set>
      <set comment="kpoint 61">
       <r>   -4.7064    1.0000 </r>
       <r>   -4.3721    1.0000 </r>
       <r>   -4.0796    1.0000 </r>
       <r>   -3.6118    1.0000 </r>
       <r>   -0.6235    1.0000 </r>
       <r>    0.3267    1.0000 </r>
       <r>    0.4098    1.0000 </r>
       <r>    0.6500    1.0000 </r>
       <r>    1.5841    1.0000 </r>
       <r>    1.8883    1.0000 </r>
       <r>    2.1059    1.0000 </r>
       <r>    2.5278    1.0000 </r>
       <r>    3.6356    1.0000 </r>
       <r>    4.0478    1.0000 </r>
       <r>    4.1196    1.0000 </r>
       <r>    4.9424    1.0000 </r>
[...]
        <r>  0.0517  0.0038  0.0038  0.0234  0.0000  0.0000  0.0000  0.0000  0.0000 </r>
        <r>  0.0531  0.0066  0.0066  0.0190  0.0000  0.0000  0.0000  0.0000  0.0000 </r>
        <r>  0.0026  0.0009  0.0009  0.0012  0.0000  0.0000  0.0000  0.0000  0.0000 </r>
        <r>  0.0915  0.0041  0.0041  0.0131  0.0000  0.0000  0.0000  0.0000  0.0000 </r>
        <r>  0.0257  0.0046  0.0045  0.0223  0.0000  0.0000  0.0000  0.0000  0.0000 </r>
        <r>  0.0026  0.0009  0.0009  0.0012  0.0000  0.0000  0.0000  0.0000  0.0000 </r>
       </set>
       <set comment="band 19">
        <r>  0.0087  0.0025  0.0002  0.0073  0.0000  0.0000  0.0000  0.0000  0.0000 </r>
        <r>  0.0087  0.0002  0.0026  0.0072  0.0000  0.0000  0.0000  0.0000  0.0000 </r>
        <r>  0.0580  0.0013  0.0013  0.0277  0.0000  0.0000  0.0000  0.0000  0.0000 </r>
        <r>  0.0213  0.0003  0.0003  0.0185  0.0000  0.0000  0.0000  0.0000  0.0000 </r>
        <r>  0.0366  0.0016  0.0002  0.0179  0.0000  0.0000  0.0000  0.0000  0.0000 </r>
        <r>  0.0026  0.0013  0.0013  0.0071  0.0000  0.0000  0.0000  0.0000  0.0000 </r>
        <r>  0.0230  0.0007  0.0007  0.0152  0.0000  0.0000  0.0000  0.0000  0.0000 </r>
        <r>  0.0365  0.0002  0.0016  0.0179  0.0000  0.0000  0.0000  0.0000  0.0000 </r>
       </set>
       <set comment="band 20">
        <r>  0.0581  0.0039  0.0063  0.0145  0.0000  0.0000  0.0000  0.0000  0.0000 </r>
        <r>  0.0581  0.0063  0.0039  0.0145  0.0000  0.0000  0.0000  0.0000  0.0000 </r>
        <r>  0.0000  0.0079  0.0080  0.0000  0.0000  0.0000  0.0000  0.0000  0.0000 </r>
        <r>  0.0000  0.0029  0.0029  0.0000  0.0000  0.0000  0.0000  0.0000  0.0000 </r>
        <r>  0.0568  0.0148  0.0018  0.0176  0.0000  0.0000  0.0000  0.0000  0.0000 </r>
        <r>  0.0000  0.0039  0.0039  0.0000  0.0000  0.0000  0.0000  0.0000  0.0000 </r>
        <r>  0.0000  0.0036  0.0036  0.0000  0.0000  0.0000  0.0000  0.0000  0.0000 </r>
        <r>  0.0569  0.0018  0.0148  0.0177  0.0000  0.0000  0.0000  0.0000  0.0000 </r>
       </set>
       <set comment="band 21">
        <r>  0.0007  0.0098  0.0026  0.0049  0.0000  0.0000  0.0000  0.0000  0.0000 </r>
        <r>  0.0003  0.0077  0.0038  0.0001  0.0000  0.0000  0.0000  0.0000  0.0000 </r>
        <r>  0.0055  0.0001  0.0089  0.0174  0.0000  0.0000  0.0000  0.0000  0.0000 </r>
        <r>  0.0084  0.0112  0.0066  0.0139  0.0000  0.0000  0.0000  0.0000  0.0000 </r>
        <r>  0.0001  0.0009  0.0079  0.0023  0.0000  0.0000  0.0000  0.0000  0.0000 </r>
        <r>  0.0011  0.0070  0.0039  0.0281  0.0000  0.0000  0.0000  0.0000  0.0000 </r>
        <r>  0.0017  0.0105  0.0053  0.0136  0.0000  0.0000  0.0000  0.0000  0.0000 </r>
        <r>  0.0017  0.0116  0.0133  0.0007  0.0000  0.0000  0.0000  0.0000  0.0000 </r>
       </set>
      </set>
      <set comment="kpoint 64">
       <set comment="band 1">
        <r>  0.0521  0.0020  0.0003  0.0015  0.0000  0.0000  0.0000  0.0000  0.0000 </r>
        <r>  0.0521  0.0003  0.0020  0.0015  0.0000  0.0000  0.0000  0.0000  0.0000 </r>
        <r>  0.1028  0.0020  0.0020  0.0032  0.0000  0.0000  0.0000  0.0000  0.0000 </r>
        <r>  0.0084  0.0019  0.0019  0.0002  0.0000  0.0000  0.0000  0.0000  0.0000 </r>
        <r>  0.0058  0.0018  0.0005  0.0008  0.0000  0.0000  0.0000  0.0000  0.0000 </r>
        <r>  0.1041  0.0017  0.0017  0.0007  0.0000  0.0000  0.0000  0.0000  0.0000 </r>
        <r>  0.1126  0.0013  0.0013  0.0016  0.0000  0.0000  0.0000  0.0000  0.0000 </r>
        <r>  0.0058  0.0005  0.0018  0.0008  0.0000  0.0000  0.0000  0.0000  0.0000 </r>
       </set>
       <set comment="band 2">
        <r>  0.0284  0.0015  0.0022  0.0008  0.0000  0.0000  0.0000  0.0000  0.0000 </r>
        <r>  0.0284  0.0022  0.0015  0.0008  0.0000  0.0000  0.0000  0.0000  0.0000 </r>
        <r>  0.0533  0.0028  0.0028  0.0017  0.0000  0.0000  0.0000  0.0000  0.0000 </r>
        <r>  0.1008  0.0003  0.0003  0.0023  0.0000  0.0000  0.0000  0.0000  0.0000 </r>
        <r>  0.0060  0.0003  0.0027  0.0003  0.0000  0.0000  0.0000  0.0000  0.0000 </r>
        <r>  0.1188  0.0000  0.0000  0.0025  0.0000  0.0000  0.0000  0.0000  0.0000 </r>
        <r>  0.1077  0.0003  0.0003  0.0010  0.0000  0.0000  0.0000  0.0000  0.0000 </r>
        <r>  0.0060  0.0027  0.0003  0.0003  0.0000  0.0000  0.0000  0.0000  0.0000 </r>
       </set>
       <set comment="band 3">
        <r>  0.1182  0.0002  0.0002  0.0017  0.0000  0.0000  0.0000  0.0000  0.0000 </r>
        <r>  0.1182  0.0002  0.0002  0.0017  0.0000  0.0000  0.0000  0.0000  0.0000 </r>
        <r>  0.0000  0.0007  0.0007  0.0000  0.0000  0.0000  0.0000  0.0000  0.0000 </r>
        <r>  0.0000  0.0021  0.0021  0.0000  0.0000  0.0000  0.0000  0.0000  0.0000 </r>
        <r>  0.1037  0.0002  0.0002  0.0029  0.0000  0.0000  0.0000  0.0000  0.0000 </r>
        <r>  0.0000  0.0029  0.0029  0.0000  0.0000  0.0000  0.0000  0.0000  0.0000 </r>
        <r>  0.0000  0.0029  0.0029  0.0000  0.0000  0.0000  0.0000  0.0000  0.0000 </r>
        <r>  0.1037  0.0002  0.0002  0.0029  0.0000  0.0000  0.0000  0.0000  0.0000 </r>
       </set>
       <set comment="band 4">
        <r>  0.0232  0.0014  0.0020  0.0007  0.0000  0.0000  0.0000  0.0000  0.0000 </r>
        <r>  0.0232  0.0020  0.0014  0.0007  0.0000  0.0000  0.0000  0.0000  0.0000 </r>
        <r>  0.0698  0.0007  0.0007  0.0007  0.0000  0.0000  0.0000  0.0000  0.0000 </r>
        <r>  0.1130  0.0002  0.0002  0.0022  0.0000  0.0000  0.0000  0.0000  0.0000 </r>
        <r>  0.0881  0.0016  0.0002  0.0014  0.0000  0.0000  0.0000  0.0000  0.0000 </r>
        <r>  0.0138  0.0024  0.0024  0.0012  0.0000  0.0000  0.0000  0.0000  0.0000 </r>
        <r>  0.0157  0.0028  0.0028  0.0019  0.0000  0.0000  0.0000  0.0000  0.0000 </r>
        <r>  0.0881  0.0002  0.0016  0.0014  0.0000  0.0000  0.0000  0.0000  0.0000 </r>
       </set>
       <set comment="band 5">
        <r>  0.0117  0.0100  0.0109  0.0043  0.0000  0.0000  0.0000  0.0000  0.0000 </r>
        <r>  0.0117  0.0109  0.0100  0.0043  0.0000  0.0000  0.0000  0.0000  0.0000 </r>
        <r>  0.0342  0.0057  0.0057  0.0096  0.0000  0.0000  0.0000  0.0000  0.0000 </r>
        <r>  0.0460  0.0043  0.0043  0.0114  0.0000  0.0000  0.0000  0.0000  0.0000 </r>
        <r>  0.0397  0.0037  0.0027  0.0096  0.0000  0.0000  0.0000  0.0000  0.0000 </r>
        <r>  0.0113  0.0137  0.0137  0.0030  0.0000  0.0000  0.0000  0.0000  0.0000 </r>
        <r>  0.0272  0.0113  0.0113  0.0042  0.0000  0.0000  0.0000  0.0000  0.0000 </r>
        <r>  0.0397  0.0027  0.0037  0.0096  0.0000  0.0000  0.0000  0.0000  0.0000 </r>
       </set>
       <set comment="band 6">
        <r>  0.0422  0.0000  0.0000  0.0172  0.0000  0.0000  0.0000  0.0000  0.0000 </r>
        <r>  0.0422  0.0000  0.0000  0.0172  0.0000  0.0000  0.0000  0.0000  0.0000 </r>
        <r>  0.0000  0.0131  0.0131  0.0000  0.0000  0.0000  0.0000  0.0000  0.0000 </r>
        <r>  0.0000  0.0164  0.0164  0.0000  0.0000  0.0000  0.0000  0.0000  0.0000 </r>
        <r>  0.0568  0.0001  0.0001  0.0127  0.0000  0.0000  0.0000  0.0000  0.0000 </r>
        <r>  0.0000  0.0156  0.0156  0.0000  0.0000  0.0000  0.0000  0.0000  0.0000 </r>
        <r>  0.0000  0.0156  0.0156  0.0000  0.0000  0.0000  0.0000  0.0000  0.0000 </r>
        <r>  0.0568  0.0001  0.0001  0.0127  0.0000  0.0000  0.0000  0.0000  0.0000 </r>
       </set>
       <set comment="band 7">
        <r>  0.0373  0.0022  0.0125  0.0068  0.0000  0.0000  0.0000  0.0000  0.0000 </r>
        <r>  0.0373  0.0125  0.0022  0.0068  0.0000  0.0000  0.0000  0.0000  0.0000 </r>
        <r>  0.0146  0.0100  0.0100  0.0025  0.0000  0.0000  0.0000  0.0000  0.0000 </r>
        <r>  0.0281  0.0068  0.0068  0.0126  0.0000  0.0000  0.0000  0.0000  0.0000 </r>
        <r>  0.0161  0.0092  0.0150  0.0022  0.0000  0.0000  0.0000  0.0000  0.0000 </r>
        <r>  0.0512  0.0019  0.0019  0.0167  0.0000  0.0000  0.0000  0.0000  0.0000 </r>
        <r>  0.0169  0.0043  0.0043  0.0123  0.0000  0.0000  0.0000  0.0000  0.0000 </r>
        <r>  0.0161  0.0150  0.0092  0.0022  0.0000  0.0000  0.0000  0.0000  0.0000 </r>
       </set>
       <set comment="band 8">
        <r>  0.0113  0.0185  0.0072  0.0025  0.0000  0.0000  0.0000  0.0000  0.0000 </r>
        <r>  0.0113  0.0072  0.0185  0.0025  0.0000  0.0000  0.0000  0.0000  0.0000 </r>
        <r>  0.0535  0.0029  0.0029  0.0168  0.0000  0.0000  0.0000  0.0000  0.0000 </r>
        <r>  0.0284  0.0031  0.0031  0.0067  0.0000  0.0000  0.0000  0.0000  0.0000 </r>
        <r>  0.0077  0.0161  0.0115  0.0003  0.0000  0.0000  0.0000  0.0000  0.0000 </r>
        <r>  0.0277  0.0006  0.0006  0.0168  0.0000  0.0000  0.0000  0.0000  0.0000 </r>
        <r>  0.0468  0.0004  0.0004  0.0202  0.0000  0.0000  0.0000  0.0000  0.0000 </r>
        <r>  0.0077  0.0115  0.0161  0.0003  0.0000  0.0000  0.0000  0.0000  0.0000 </r>
       </set>
       <set comment="band 9">
        <r>  0.0013  0.0005  0.0014  0.0044  0.0000  0.0000  0.0000  0.0000  0.0000 </r>
        <r>  0.0013  0.0014  0.0005  0.0044  0.0000  0.0000  0.0000  0.0000  0.0000 </r>
        <r>  0.0126  0.0565  0.0565  0.0088  0.0000  0.0000  0.0000  0.0000  0.0000 </r>
        <r>  0.0056  0.0335  0.0335  0.0007  0.0000  0.0000  0.0000  0.0000  0.0000 </r>
        <r>  0.0003  0.0036  0.0006  0.0019  0.0000  0.0000  0.0000  0.0000  0.0000 </r>
        <r>  0.0069  0.0412  0.0412  0.0064  0.0000  0.0000  0.0000  0.0000  0.0000 </r>
        <r>  0.0108  0.0498  0.0498  0.0053  0.0000  0.0000  0.0000  0.0000  0.0000 </r>
        <r>  0.0003  0.0006  0.0036  0.0019  0.0000  0.0000  0.0000  0.0000  0.0000 </r>
       </set>
       <set comment="band 10">
        <r>  0.0039  0.0066  0.0106  0.0242  0.0000  0.0000  0.0000  0.0000  0.0000 </r>
        <r>  0.0039  0.0106  0.0066  0.0242  0.0000  0.0000  0.0000  0.0000  0.0000 </r>
        <r>  0.0024  0.0069  0.0069  0.0240  0.0000  0.0000  0.0000  0.0000  0.0000 </r>
        <r>  0.0099  0.0112  0.0112  0.0472  0.0000  0.0000  0.0000  0.0000  0.0000 </r>
        <r>  0.0056  0.0031  0.0101  0.0337  0.0000  0.0000  0.0000  0.0000  0.0000 </r>
        <r>  0.0090  0.0207  0.0207  0.0338  0.0000  0.0000  0.0000  0.0000  0.0000 </r>
        <r>  0.0018  0.0039  0.0039  0.0164  0.0000  0.0000  0.0000  0.0000  0.0000 </r>
        <r>  0.0056  0.0101  0.0031  0.0337  0.0000  0.0000  0.0000  0.0000  0.0000 </r>
       </set>
       <set comment="band 11">
        <r>  0.0134  0.0360  0.0326  0.0141  0.0000  0.0000  0.0000  0.0000  0.0000 </r>
        <r>  0.0134  0.0326  0.0360  0.0141  0.0000  0.0000  0.0000  0.0000  0.0000 </r>
        <r>  0.0000  0.0039  0.0039  0.0000  0.0000  0.0000  0.0000  0.0000  0.0000 </r>
        <r>  0.0000  0.0080  0.0080  0.0000  0.0000  0.0000  0.0000  0.0000  0.0000 </r>
        <r>  0.0128  0.0250  0.0411  0.0159  0.0000  0.0000  0.0000  0.0000  0.0000 </r>
        <r>  0.0000  0.0031  0.0031  0.0000  0.0000  0.0000  0.0000  0.0000  0.0000 </r>
        <r>  0.0000  0.0051  0.0051  0.0000  0.0000  0.0000  0.0000  0.0000  0.0000 </r>
        <r>  0.0128  0.0411  0.0250  0.0159  0.0000  0.0000  0.0000  0.0000  0.0000 </r>
       </set>
       <set comment="band 12">
        <r>  0.0000  0.0591  0.0242  0.0073  0.0000  0.0000  0.0000  0.0000  0.0000 </r>
        <r>  0.0000  0.0242  0.0591  0.0073  0.0000  0.0000  0.0000  0.0000  0.0000 </r>
        <r>  0.0000  0.0012  0.0012  0.0000  0.0000  0.0000  0.0000  0.0000  0.0000 </r>
        <r>  0.0000  0.0126  0.0126  0.0000  0.0000  0.0000  0.0000  0.0000  0.0000 </r>
        <r>  0.0000  0.0099  0.0006  0.0082  0.0000  0.0000  0.0000  0.0000  0.0000 </r>
        <r>  0.0000  0.0630  0.0630  0.0000  0.0000  0.0000  0.0000  0.0000  0.0000 </r>
        <r>  0.0000  0.0264  0.0264  0.0000  0.0000  0.0000  0.0000  0.0000  0.0000 </r>
        <r>  0.0000  0.0006  0.0099  0.0082  0.0000  0.0000  0.0000  0.0000  0.0000 </r>
       </set>
       <set comment="band 13">
        <r>  0.0000  0.0005  0.0429  0.0369  0.0000  0.0000  0.0000  0.0000  0.0000 </r>
        <r>  0.0000  0.0429  0.0005  0.0369  0.0000  0.0000  0.0000  0.0000  0.0000 </r>
        <r>  0.0000  0.0018  0.0018  0.0000  0.0000  0.0000  0.0000  0.0000  0.0000 </r>
        <r>  0.0000  0.0240  0.0240  0.0000  0.0000  0.0000  0.0000  0.0000  0.0000 </r>
        <r>  0.0000  0.0270  0.0024  0.0373  0.0000  0.0000  0.0000  0.0000  0.0000 </r>
        <r>  0.0000  0.0001  0.0001  0.0000  0.0000  0.0000  0.0000  0.0000  0.0000 </r>
        <r>  0.0000  0.0397  0.0397  0.0000  0.0000  0.0000  0.0000  0.0000  0.0000 </r>
        <r>  0.0000  0.0024  0.0270  0.0373  0.0000  0.0000  0.0000  0.0000  0.0000 </r>
       </set>
       <set comment="band 14">
        <r>  0.0000  0.0040  0.0139  0.0344  0.0000  0.0000  0.0000  0.0000  0.0000 </r>
        <r>  0.0000  0.0139  0.0040  0.0344  0.0000  0.0000  0.0000  0.0000  0.0000 </r>
        <r>  0.0000  0.0044  0.0044  0.0169  0.0000  0.0000  0.0000  0.0000  0.0000 </r>
        <r>  0.0001  0.0136  0.0136  0.0580  0.0000  0.0000  0.0000  0.0000  0.0000 </r>
        <r>  0.0000  0.0212  0.0034  0.0231  0.0000  0.0000  0.0000  0.0000  0.0000 </r>
        <r>  0.0001  0.0011  0.0011  0.0153  0.0000  0.0000  0.0000  0.0000  0.0000 </r>
        <r>  0.0000  0.0131  0.0131  0.0761  0.0000  0.0000  0.0000  0.0000  0.0000 </r>
        <r>  0.0000  0.0035  0.0212  0.0231  0.0000  0.0000  0.0000  0.0000  0.0000 </r>
       </set>
       <set comment="band 15">
        <r>  0.0001  0.0236  0.0090  0.0055  0.0000  0.0000  0.0000  0.0000  0.0000 </r>
        <r>  0.0001  0.0090  0.0236  0.0055  0.0000  0.0000  0.0000  0.0000  0.0000 </r>
        <r>  0.0039  0.0032  0.0032  0.0802  0.0000  0.0000  0.0000  0.0000  0.0000 </r>
        <r>  0.0016  0.0051  0.0051  0.0307  0.0000  0.0000  0.0000  0.0000  0.0000 </r>
        <r>  0.0003  0.0087  0.0223  0.0107  0.0000  0.0000  0.0000  0.0000  0.0000 </r>
        <r>  0.0013  0.0055  0.0055  0.0748  0.0000  0.0000  0.0000  0.0000  0.0000 </r>
        <r>  0.0028  0.0008  0.0008  0.0361  0.0000  0.0000  0.0000  0.0000  0.0000 </r>
        <r>  0.0003  0.0223  0.0087  0.0107  0.0000  0.0000  0.0000  0.0000  0.0000 </r>
       </set>
       <set comment="band 16">
        <r>  0.0007  0.0047  0.0006  0.0091  0.0000  0.0000  0.0000  0.0000  0.0000 </r>
        <r>  0.0007  0.0006  0.0047  0.0091  0.0000  0.0000  0.0000  0.0000  0.0000 </r>
        <r>  0.0000  0.0619  0.0619  0.0000  0.0000  0.0000  0.0000  0.0000  0.0000 </r>
        <r>  0.0000  0.0266  0.0266  0.0000  0.0000  0.0000  0.0000  0.0000  0.0000 </r>
        <r>  0.0003  0.0318  0.0534  0.0076  0.0000  0.0000  0.0000  0.0000  0.0000 </r>
        <r>  0.0000  0.0055  0.0055  0.0000  0.0000  0.0000  0.0000  0.0000  0.0000 </r>
        <r>  0.0000  0.0001  0.0001  0.0000  0.0000  0.0000  0.0000  0.0000  0.0000 </r>
        <r>  0.0003  0.0534  0.0318  0.0076  0.0000  0.0000  0.0000  0.0000  0.0000 </r>
       </set>
       <set comment="band 17">
        <r>  0.0400  0.0027  0.0020  0.0016  0.0000  0.0000  0.0000  0.0000  0.0000 </r>
        <r>  0.0400  0.0020  0.0027  0.0016  0.0000  0.0000  0.0000  0.0000  0.0000 </r>
        <r>  0.0313  0.0002  0.0002  0.0094  0.0000  0.0000  0.0000  0.0000  0.0000 </r>
        <r>  0.0599  0.0029  0.0029  0.0013  0.0000  0.0000  0.0000  0.0000  0.0000 </r>
        <r>  0.0446  0.0015  0.0013  0.0017  0.0000  0.0000  0.0000  0.0000  0.0000 </r>
        <r>  0.0300  0.0009  0.0009  0.0089  0.0000  0.0000  0.0000  0.0000  0.0000 </r>
        <r>  0.0548  0.0025  0.0025  0.0013  0.0000  0.0000  0.0000  0.0000  0.0000 </r>
        <r>  0.0446  0.0012  0.0015  0.0017  0.0000  0.0000  0.0000  0.0000  0.0000 </r>
       </set>
       <set comment="band 18">
        <r>  0.0063  0.0001  0.0066  0.0022  0.0000  0.0000  0.0000  0.0000  0.0000 </r>
        <r>  0.0064  0.0065  0.0002  0.0023  0.0000  0.0000  0.0000  0.0000  0.0000 </r>
        <r>  0.0963  0.0039  0.0039  0.0163  0.0000  0.0000  0.0000  0.0000  0.0000 </r>
        <r>  0.0435  0.0053  0.0054  0.0018  0.0000  0.0000  0.0000  0.0000  0.0000 </r>
        <r>  0.0170  0.0055  0.0010  0.0039  0.0000  0.0000  0.0000  0.0000  0.0000 </r>
        <r>  0.0555  0.0010  0.0010  0.0081  0.0000  0.0000  0.0000  0.0000  0.0000 </r>
        <r>  0.0665  0.0063  0.0064  0.0001  0.0000  0.0000  0.0000  0.0000  0.0000 </r>
        <r>  0.0175  0.0011  0.0058  0.0039  0.0000  0.0000  0.0000  0.0000  0.0000 </r>
       </set>
       <set comment="band 19">
        <r>  0.0753  0.0053  0.0060  0.0036  0.0000  0.0000  0.0000  0.0000  0.0000 </r>
        <r>  0.0752  0.0062  0.0053  0.0035  0.0000  0.0000  0.0000  0.0000  0.0000 </r>
        <r>  0.0000  0.0101  0.0101  0.0000  0.0000  0.0000  0.0000  0.0000  0.0000 </r>
        <r>  0.0000  0.0055  0.0053  0.0000  0.0000  0.0000  0.0000  0.0000  0.0000 </r>
        <r>  0.0770  0.0112  0.0038  0.0032  0.0000  0.0000  0.0000  0.0000  0.0000 </r>
        <r>  0.0000  0.0050  0.0050  0.0000  0.0000  0.0000  0.0000  0.0000  0.0000 </r>
        <r>  0.0000  0.0053  0.0051  0.0000  0.0000  0.0000  0.0000  0.0000  0.0000 </r>
        <r>  0.0765  0.0038  0.0110  0.0033  0.0000  0.0000  0.0000  0.0000  0.0000 </r>
       </set>
       <set comment="band 20">
        <r>  0.0335  0.0051  0.0001  0.0073  0.0000  0.0000  0.0000  0.0000  0.0000 </r>
        <r>  0.0335  0.0001  0.0051  0.0072  0.0000  0.0000  0.0000  0.0000  0.0000 </r>
        <r>  0.0243  0.0022  0.0022  0.0074  0.0000  0.0000  0.0000  0.0000  0.0000 </r>
        <r>  0.0553  0.0012  0.0012  0.0081  0.0000  0.0000  0.0000  0.0000  0.0000 </r>
        <r>  0.0194  0.0004  0.0050  0.0037  0.0000  0.0000  0.0000  0.0000  0.0000 </r>
        <r>  0.0713  0.0075  0.0075  0.0034  0.0000  0.0000  0.0000  0.0000  0.0000 </r>
        <r>  0.0368  0.0011  0.0011  0.0177  0.0000  0.0000  0.0000  0.0000  0.0000 </r>
        <r>  0.0194  0.0050  0.0004  0.0037  0.0000  0.0000  0.0000  0.0000  0.0000 </r>
       </set>
       <set comment="band 21">
        <r>  0.0003  0.0050  0.0010  0.0020  0.0000  0.0000  0.0000  0.0000  0.0000 </r>
        <r>  0.0003  0.0084  0.0060  0.0047  0.0000  0.0000  0.0000  0.0000  0.0000 </r>
        <r>  0.0038  0.0052  0.0096  0.0165  0.0000  0.0000  0.0000  0.0000  0.0000 </r>
        <r>  0.0017  0.0137  0.0064  0.0198  0.0000  0.0000  0.0000  0.0000  0.0000 </r>
        <r>  0.0019  0.0098  0.0135  0.0023  0.0000  0.0000  0.0000  0.0000  0.0000 </r>
        <r>  0.0015  0.0036  0.0012  0.0365  0.0000  0.0000  0.0000  0.0000  0.0000 </r>
        <r>  0.0002  0.0052  0.0042  0.0077  0.0000  0.0000  0.0000  0.0000  0.0000 </r>
        <r>  0.0007  0.0142  0.0034  0.0015  0.0000  0.0000  0.0000  0.0000  0.0000 </r>
       </set>
      </set>
     </set>
    </set>
   </array>
  </projected>
 </calculation>
 <structure name="finalpos" >
  <crystal>
   <varray name="basis" >
    <v>       5.46503124       0.00000000       0.00000000 </v>
    <v>       0.00000000       5.46503124       0.00000000 </v>
    <v>       0.00000000       0.00000000       5.46503124 </v>
   </varray>
   <i name="volume">    163.22171868 </i>
   <varray name="rec_basis" >
    <v>       0.18298157       0.00000000       0.00000000 </v>
    <v>       0.00000000       0.18298157       0.00000000 </v>
    <v>       0.00000000       0.00000000       0.18298157 </v>
   </varray>
  </crystal>
  <varray name="positions" >
   <v>       0.00000000       0.00000000       0.00000000 </v>
   <v>       0.00000000       0.50000000       0.50000000 </v>
   <v>       0.45000000       0.50000000       0.00000000 </v>
   <v>       0.50000000       0.00000000       0.50000000 </v>
   <v>       0.75000000       0.25000000       0.75000000 </v>
   <v>       0.25000000       0.25000000       0.25000000 </v>
   <v>       0.25000000       0.75000000       0.75000000 </v>
   <v>       0.75000000       0.75000000       0.25000000 </v>
  </varray>
 </structure>
</modeling>
