   2   2   1   0
  0.2044415E+02  0.3866975E-09  0.3866975E-09  0.3866975E-09  0.5000000E-15
   1.0000000000000000E-004
  CAR 
 unknown system                          
     22.14505839     -7.34078843  301      5.36269724      1.00000000
     -7.341  0.0000E+00  0.0000E+00
     -7.243  0.0000E+00  0.0000E+00
     -7.144  0.0000E+00  0.0000E+00
     -7.046  0.0000E+00  0.0000E+00
     -6.948  0.0000E+00  0.0000E+00
     -6.849  0.0000E+00  0.0000E+00
     -6.751  0.0000E+00  0.0000E+00
     -6.653  0.0000E+00  0.0000E+00
     -6.554  0.0000E+00  0.0000E+00
     -6.456  0.0000E+00  0.0000E+00
     -6.358  0.0000E+00  0.0000E+00
     -6.260  0.0000E+00  0.0000E+00
     -6.161  0.0000E+00  0.0000E+00
     -6.063  0.0000E+00  0.0000E+00
     -5.965  0.1011E+00  0.1117E-01
     -5.866  0.1384E+00  0.2290E-01
     -5.768  0.1800E+00  0.3851E-01
     -5.670  0.2258E+00  0.5842E-01
     -5.572  0.2760E+00  0.8305E-01
     -5.473  0.3305E+00  0.1128E+00
     -5.375  0.3174E+00  0.1429E+00
     -5.277  0.3403E+00  0.1752E+00
     -5.178  0.3615E+00  0.2097E+00
     -5.080  0.3810E+00  0.2462E+00
     -4.982  0.3987E+00  0.2845E+00
     -4.884  0.4255E+00  0.3250E+00
     -4.785  0.4575E+00  0.3683E+00
     -4.687  0.4940E+00  0.4150E+00
     -4.589  0.5350E+00  0.4656E+00
     -4.490  0.5853E+00  0.5205E+00
     -4.392  0.6234E+00  0.5800E+00
     -4.294  0.6648E+00  0.6434E+00
     -4.196  0.7018E+00  0.7106E+00
     -4.097  0.7344E+00  0.7812E+00
     -3.999  0.8427E+00  0.8561E+00
     -3.901  0.1057E+01  0.9500E+00
     -3.802  0.8533E+00  0.1059E+01
     -3.704  0.8408E+00  0.1142E+01
     -3.606  0.8199E+00  0.1224E+01
     -3.508  0.7907E+00  0.1303E+01
     -3.409  0.7532E+00  0.1379E+01
     -3.311  0.7347E+00  0.1451E+01
     -3.213  0.7736E+00  0.1526E+01
     -3.114  0.7962E+00  0.1603E+01
     -3.016  0.8024E+00  0.1682E+01
     -2.918  0.1284E+01  0.1810E+01
     -2.820  0.1194E+01  0.1932E+01
     -2.721  0.0000E+00  0.2000E+01
     -2.623  0.0000E+00  0.2000E+01
     -2.525  0.0000E+00  0.2000E+01
     -2.426  0.0000E+00  0.2000E+01
     -2.328  0.0000E+00  0.2000E+01
     -2.230  0.0000E+00  0.2000E+01
     -2.132  0.0000E+00  0.2000E+01
     -2.033  0.0000E+00  0.2000E+01
     -1.935  0.0000E+00  0.2000E+01
     -1.837  0.0000E+00  0.2000E+01
     -1.738  0.0000E+00  0.2000E+01
     -1.640  0.0000E+00  0.2000E+01
     -1.542  0.0000E+00  0.2000E+01
     -1.444  0.0000E+00  0.2000E+01
     -1.345  0.0000E+00  0.2000E+01
     -1.247  0.2027E+01  0.2074E+01
     -1.149  0.1323E+01  0.2295E+01
     -1.050  0.1275E+01  0.2425E+01
     -0.952  0.1081E+01  0.2559E+01
     -0.854  0.1027E+01  0.2663E+01
     -0.756  0.9677E+00  0.2761E+01
     -0.657  0.9041E+00  0.2853E+01
     -0.559  0.8358E+00  0.2938E+01
     -0.461  0.7629E+00  0.3017E+01
     -0.362  0.6852E+00  0.3088E+01
     -0.264  0.6029E+00  0.3151E+01
     -0.166  0.5073E+00  0.3207E+01
     -0.068  0.4814E+00  0.3255E+01
      0.031  0.4565E+00  0.3301E+01
      0.129  0.4326E+00  0.3345E+01
      0.227  0.4096E+00  0.3386E+01
      0.326  0.3876E+00  0.3426E+01
      0.424  0.3665E+00  0.3463E+01
      0.522  0.3463E+00  0.3498E+01
      0.620  0.3272E+00  0.3531E+01
      0.719  0.3097E+00  0.3562E+01
      0.817  0.2850E+00  0.3591E+01
      0.915  0.2623E+00  0.3618E+01
      1.014  0.2416E+00  0.3643E+01
      1.112  0.2295E+00  0.3666E+01
      1.210  0.2194E+00  0.3688E+01
      1.308  0.2096E+00  0.3709E+01
      1.407  0.2000E+00  0.3729E+01
      1.505  0.1906E+00  0.3748E+01
      1.603  0.1814E+00  0.3767E+01
      1.702  0.1247E+01  0.3946E+01
      1.800  0.1178E+01  0.4061E+01
      1.898  0.1190E+01  0.4177E+01
      1.996  0.1187E+01  0.4294E+01
      2.095  0.1171E+01  0.4410E+01
      2.193  0.1141E+01  0.4524E+01
      2.291  0.1005E+01  0.4654E+01
      2.390  0.9308E+00  0.4750E+01
      2.488  0.8945E+00  0.4839E+01
      2.586  0.8613E+00  0.4926E+01
      2.684  0.8277E+00  0.5009E+01
      2.783  0.1628E+01  0.5183E+01
      2.881  0.1716E+01  0.5347E+01
      2.979  0.1805E+01  0.5520E+01
      3.078  0.1546E+01  0.5698E+01
      3.176  0.1555E+01  0.5850E+01
      3.274  0.1557E+01  0.6003E+01
      3.372  0.1538E+01  0.6164E+01
      3.471  0.1465E+01  0.6313E+01
      3.569  0.1424E+01  0.6455E+01
      3.667  0.1393E+01  0.6593E+01
      3.766  0.1662E+01  0.6759E+01
      3.864  0.1503E+01  0.6912E+01
      3.962  0.1391E+01  0.7054E+01
      4.060  0.1254E+01  0.7193E+01
      4.159  0.1108E+01  0.7316E+01
      4.257  0.9977E+00  0.7419E+01
      4.355  0.9023E+00  0.7512E+01
      4.454  0.9601E+00  0.7606E+01
      4.552  0.8566E+00  0.7695E+01
      4.650  0.7375E+00  0.7774E+01
      4.748  0.5697E+00  0.7838E+01
      4.847  0.3506E+00  0.7884E+01
      4.945  0.2775E+00  0.7914E+01
      5.043  0.2241E+00  0.7939E+01
      5.142  0.1761E+00  0.7958E+01
      5.240  0.1337E+00  0.7974E+01
      5.338  0.5157E-01  0.7992E+01
      5.436  0.0000E+00  0.8000E+01
      5.535  0.0000E+00  0.8000E+01
      5.633  0.0000E+00  0.8000E+01
      5.731  0.0000E+00  0.8000E+01
      5.830  0.0000E+00  0.8000E+01
      5.928  0.0000E+00  0.8000E+01
      6.026  0.0000E+00  0.8000E+01
      6.124  0.0000E+00  0.8000E+01
      6.223  0.0000E+00  0.8000E+01
      6.321  0.0000E+00  0.8000E+01
      6.419  0.0000E+00  0.8000E+01
      6.518  0.0000E+00  0.8000E+01
      6.616  0.1998E+00  0.8037E+01
      6.714  0.2422E+00  0.8059E+01
      6.812  0.2887E+00  0.8085E+01
      6.911  0.3393E+00  0.8116E+01
      7.009  0.3468E+00  0.8151E+01
      7.107  0.4049E+00  0.8187E+01
      7.206  0.4746E+00  0.8231E+01
      7.304  0.5779E+00  0.8282E+01
      7.402  0.7094E+00  0.8345E+01
      7.500  0.9299E+00  0.8423E+01
      7.599  0.1358E+01  0.8555E+01
      7.697  0.1688E+01  0.8705E+01
      7.795  0.2329E+01  0.8907E+01
      7.894  0.2514E+01  0.9146E+01
      7.992  0.2574E+01  0.9397E+01
      8.090  0.2016E+01  0.9677E+01
      8.188  0.1662E+01  0.9858E+01
      8.287  0.1301E+01  0.1000E+02
      8.385  0.9137E+00  0.1011E+02
      8.483  0.2809E+00  0.1018E+02
      8.582  0.4276E+00  0.1022E+02
      8.680  0.5965E+00  0.1028E+02
      8.778  0.7638E+00  0.1035E+02
      8.876  0.9602E+00  0.1043E+02
      8.975  0.1186E+01  0.1054E+02
      9.073  0.1880E+01  0.1067E+02
      9.171  0.3409E+01  0.1099E+02
      9.270  0.2119E+01  0.1131E+02
      9.368  0.1035E+01  0.1141E+02
      9.466  0.1159E+01  0.1152E+02
      9.564  0.1266E+01  0.1164E+02
      9.663  0.1332E+01  0.1177E+02
      9.761  0.1337E+01  0.1191E+02
      9.859  0.1343E+01  0.1204E+02
      9.958  0.1250E+01  0.1221E+02
     10.056  0.1096E+01  0.1233E+02
     10.154  0.1296E+01  0.1245E+02
     10.252  0.1403E+01  0.1258E+02
     10.351  0.1329E+01  0.1272E+02
     10.449  0.1109E+01  0.1283E+02
     10.547  0.1091E+01  0.1294E+02
     10.646  0.1380E+01  0.1306E+02
     10.744  0.1732E+01  0.1321E+02
     10.842  0.2126E+01  0.1345E+02
     10.940  0.1495E+01  0.1362E+02
     11.039  0.8291E+00  0.1374E+02
     11.137  0.6677E+00  0.1381E+02
     11.235  0.6406E+00  0.1387E+02
     11.334  0.6200E+00  0.1393E+02
     11.432  0.6059E+00  0.1399E+02
     11.530  0.8628E+00  0.1406E+02
     11.628  0.1056E+01  0.1416E+02
     11.727  0.1182E+01  0.1427E+02
     11.825  0.8865E+00  0.1439E+02
     11.923  0.9187E+00  0.1447E+02
     12.022  0.9452E+00  0.1457E+02
     12.120  0.9821E+00  0.1466E+02
     12.218  0.1051E+01  0.1476E+02
     12.316  0.1113E+01  0.1487E+02
     12.415  0.1168E+01  0.1498E+02
     12.513  0.1228E+01  0.1510E+02
     12.611  0.1335E+01  0.1522E+02
     12.710  0.1439E+01  0.1536E+02
     12.808  0.1539E+01  0.1550E+02
     12.906  0.2168E+01  0.1570E+02
     13.004  0.1029E+01  0.1593E+02
     13.103  0.9352E+00  0.1603E+02
     13.201  0.8567E+00  0.1612E+02
     13.299  0.7931E+00  0.1620E+02
     13.398  0.7446E+00  0.1627E+02
     13.496  0.7188E+00  0.1635E+02
     13.594  0.8830E+00  0.1642E+02
     13.692  0.1085E+01  0.1652E+02
     13.791  0.1200E+01  0.1666E+02
     13.889  0.1303E+01  0.1681E+02
     13.987  0.1318E+01  0.1698E+02
     14.086  0.1391E+01  0.1712E+02
     14.184  0.1464E+01  0.1726E+02
     14.282  0.1578E+01  0.1741E+02
     14.380  0.1644E+01  0.1757E+02
     14.479  0.1693E+01  0.1774E+02
     14.577  0.1081E+01  0.1792E+02
     14.675  0.1109E+01  0.1802E+02
     14.774  0.1142E+01  0.1813E+02
     14.872  0.1178E+01  0.1825E+02
     14.970  0.1218E+01  0.1837E+02
     15.068  0.1262E+01  0.1849E+02
     15.167  0.1312E+01  0.1861E+02
     15.265  0.1818E+01  0.1876E+02
     15.363  0.1676E+01  0.1893E+02
     15.462  0.1530E+01  0.1909E+02
     15.560  0.2406E+01  0.1927E+02
     15.658  0.1330E+01  0.1941E+02
     15.756  0.1290E+01  0.1953E+02
     15.855  0.1250E+01  0.1966E+02
     15.953  0.1210E+01  0.1978E+02
     16.051  0.1084E+01  0.1990E+02
     16.150  0.1041E+01  0.2001E+02
     16.248  0.9448E+00  0.2014E+02
     16.346  0.1250E+01  0.2026E+02
     16.444  0.1219E+01  0.2038E+02
     16.543  0.1188E+01  0.2050E+02
     16.641  0.4957E+00  0.2061E+02
     16.739  0.5237E+00  0.2066E+02
     16.838  0.5526E+00  0.2072E+02
     16.936  0.5824E+00  0.2077E+02
     17.034  0.6869E+00  0.2084E+02
     17.132  0.7288E+00  0.2091E+02
     17.231  0.9694E+00  0.2100E+02
     17.329  0.1182E+01  0.2111E+02
     17.427  0.1418E+01  0.2123E+02
     17.526  0.1795E+01  0.2139E+02
     17.624  0.2357E+01  0.2159E+02
     17.722  0.3110E+01  0.2191E+02
     17.820  0.2299E+01  0.2218E+02
     17.919  0.1168E+01  0.2234E+02
     18.017  0.9460E+00  0.2245E+02
     18.115  0.7446E+00  0.2253E+02
     18.214  0.7825E+00  0.2261E+02
     18.312  0.1043E+01  0.2272E+02
     18.410  0.1027E+01  0.2282E+02
     18.508  0.9573E+00  0.2292E+02
     18.607  0.8858E+00  0.2301E+02
     18.705  0.7473E+00  0.2310E+02
     18.803  0.7111E+00  0.2317E+02
     18.902  0.6756E+00  0.2324E+02
     19.000  0.6408E+00  0.2330E+02
     19.098  0.6069E+00  0.2336E+02
     19.196  0.5737E+00  0.2342E+02
     19.295  0.5149E+00  0.2347E+02
     19.393  0.4980E+00  0.2352E+02
     19.491  0.4806E+00  0.2357E+02
     19.590  0.4624E+00  0.2362E+02
     19.688  0.4435E+00  0.2366E+02
     19.786  0.4238E+00  0.2370E+02
     19.884  0.4278E+00  0.2377E+02
     19.983  0.3707E+00  0.2381E+02
     20.081  0.3127E+00  0.2384E+02
     20.179  0.2541E+00  0.2387E+02
     20.278  0.1949E+00  0.2389E+02
     20.376  0.1807E+00  0.2391E+02
     20.474  0.1964E+00  0.2393E+02
     20.572  0.2511E+00  0.2395E+02
     20.671  0.2410E+00  0.2398E+02
     20.769  0.1330E+00  0.2400E+02
     20.867  0.0000E+00  0.2400E+02
     20.966  0.0000E+00  0.2400E+02
     21.064  0.0000E+00  0.2400E+02
     21.162  0.0000E+00  0.2400E+02
     21.260  0.0000E+00  0.2400E+02
     21.359  0.0000E+00  0.2400E+02
     21.457  0.0000E+00  0.2400E+02
     21.555  0.0000E+00  0.2400E+02
     21.654  0.0000E+00  0.2400E+02
     21.752  0.0000E+00  0.2400E+02
     21.850  0.0000E+00  0.2400E+02
     21.948  0.0000E+00  0.2400E+02
     22.047  0.0000E+00  0.2400E+02
     22.145  0.0000E+00  0.2400E+02
     22.14505839     -7.34078843  301      5.36269724      1.00000000
     -7.341  0.0000E+00  0.0000E+00  0.0000E+00  0.0000E+00  0.0000E+00  0.0000E+00  0.0000E+00  0.0000E+00  0.0000E+00  0.0000E+00  0.0000E+00  0.0000E+00  0.0000E+00  0.0000E+00  0.0000E+00  0.0000E+00  0.0000E+00  0.0000E+00  0.0000E+00  0.0000E+00  0.0000E+00  0.0000E+00  0.0000E+00  0.0000E+00  0.0000E+00  0.0000E+00  0.0000E+00  0.0000E+00  0.0000E+00  0.0000E+00  0.0000E+00  0.0000E+00  0.0000E+00  0.0000E+00  0.0000E+00  0.0000E+00
     -7.243  0.0000E+00  0.0000E+00  0.0000E+00  0.0000E+00  0.0000E+00  0.0000E+00  0.0000E+00  0.0000E+00  0.0000E+00  0.0000E+00  0.0000E+00  0.0000E+00  0.0000E+00  0.0000E+00  0.0000E+00  0.0000E+00  0.0000E+00  0.0000E+00  0.0000E+00  0.0000E+00  0.0000E+00  0.0000E+00  0.0000E+00  0.0000E+00  0.0000E+00  0.0000E+00  0.0000E+00  0.0000E+00  0.0000E+00  0.0000E+00  0.0000E+00  0.0000E+00  0.0000E+00  0.0000E+00  0.0000E+00  0.0000E+00
     -7.144  0.0000E+00  0.0000E+00  0.0000E+00  0.0000E+00  0.0000E+00  0.0000E+00  0.0000E+00  0.0000E+00  0.0000E+00  0.0000E+00  0.0000E+00  0.0000E+00  0.0000E+00  0.0000E+00  0.0000E+00  0.0000E+00  0.0000E+00  0.0000E+00  0.0000E+00  0.0000E+00  0.0000E+00  0.0000E+00  0.0000E+00  0.0000E+00  0.0000E+00  0.0000E+00  0.0000E+00  0.0000E+00  0.0000E+00  0.0000E+00  0.0000E+00  0.0000E+00  0.0000E+00  0.0000E+00  0.0000E+00  0.0000E+00
     -7.046  0.0000E+00  0.0000E+00  0.0000E+00  0.0000E+00  0.0000E+00  0.0000E+00  0.0000E+00  0.0000E+00  0.0000E+00  0.0000E+00  0.0000E+00  0.0000E+00  0.0000E+00  0.0000E+00  0.0000E+00  0.0000E+00  0.0000E+00  0.0000E+00  0.0000E+00  0.0000E+00  0.0000E+00  0.0000E+00  0.0000E+00  0.0000E+00  0.0000E+00  0.0000E+00  0.0000E+00  0.0000E+00  0.0000E+00  0.0000E+00  0.0000E+00  0.0000E+00  0.0000E+00  0.0000E+00  0.0000E+00  0.0000E+00
     -6.948  0.0000E+00  0.0000E+00  0.0000E+00  0.0000E+00  0.0000E+00  0.0000E+00  0.0000E+00  0.0000E+00  0.0000E+00  0.0000E+00  0.0000E+00  0.0000E+00  0.0000E+00  0.0000E+00  0.0000E+00  0.0000E+00  0.0000E+00  0.0000E+00  0.0000E+00  0.0000E+00  0.0000E+00  0.0000E+00  0.0000E+00  0.0000E+00  0.0000E+00  0.0000E+00  0.0000E+00  0.0000E+00  0.0000E+00  0.0000E+00  0.0000E+00  0.0000E+00  0.0000E+00  0.0000E+00  0.0000E+00  0.0000E+00
     -6.849  0.0000E+00  0.0000E+00  0.0000E+00  0.0000E+00  0.0000E+00  0.0000E+00  0.0000E+00  0.0000E+00  0.0000E+00  0.0000E+00  0.0000E+00  0.0000E+00  0.0000E+00  0.0000E+00  0.0000E+00  0.0000E+00  0.0000E+00  0.0000E+00  0.0000E+00  0.0000E+00  0.0000E+00  0.0000E+00  0.0000E+00  0.0000E+00  0.0000E+00  0.0000E+00  0.0000E+00  0.0000E+00  0.0000E+00  0.0000E+00  0.0000E+00  0.0000E+00  0.0000E+00  0.0000E+00  0.0000E+00  0.0000E+00
     -6.751  0.0000E+00  0.0000E+00  0.0000E+00  0.0000E+00  0.0000E+00  0.0000E+00  0.0000E+00  0.0000E+00  0.0000E+00  0.0000E+00  0.0000E+00  0.0000E+00  0.0000E+00  0.0000E+00  0.0000E+00  0.0000E+00  0.0000E+00  0.0000E+00  0.0000E+00  0.0000E+00  0.0000E+00  0.0000E+00  0.0000E+00  0.0000E+00  0.0000E+00  0.0000E+00  0.0000E+00  0.0000E+00  0.0000E+00  0.0000E+00  0.0000E+00  0.0000E+00  0.0000E+00  0.0000E+00  0.0000E+00  0.0000E+00
     -6.653  0.0000E+00  0.0000E+00  0.0000E+00  0.0000E+00  0.0000E+00  0.0000E+00  0.0000E+00  0.0000E+00  0.0000E+00  0.0000E+00  0.0000E+00  0.0000E+00  0.0000E+00  0.0000E+00  0.0000E+00  0.0000E+00  0.0000E+00  0.0000E+00  0.0000E+00  0.0000E+00  0.0000E+00  0.0000E+00  0.0000E+00  0.0000E+00  0.0000E+00  0.0000E+00  0.0000E+00  0.0000E+00  0.0000E+00  0.0000E+00  0.0000E+00  0.0000E+00  0.0000E+00  0.0000E+00  0.0000E+00  0.0000E+00
     -6.554  0.0000E+00  0.0000E+00  0.0000E+00  0.0000E+00  0.0000E+00  0.0000E+00  0.0000E+00  0.0000E+00  0.0000E+00  0.0000E+00  0.0000E+00  0.0000E+00  0.0000E+00  0.0000E+00  0.0000E+00  0.0000E+00  0.0000E+00  0.0000E+00  0.0000E+00  0.0000E+00  0.0000E+00  0.0000E+00  0.0000E+00  0.0000E+00  0.0000E+00  0.0000E+00  0.0000E+00  0.0000E+00  0.0000E+00  0.0000E+00  0.0000E+00  0.0000E+00  0.0000E+00  0.0000E+00  0.0000E+00  0.0000E+00
     -6.456  0.0000E+00  0.0000E+00  0.0000E+00  0.0000E+00  0.0000E+00  0.0000E+00  0.0000E+00  0.0000E+00  0.0000E+00  0.0000E+00  0.0000E+00  0.0000E+00  0.0000E+00  0.0000E+00  0.0000E+00  0.0000E+00  0.0000E+00  0.0000E+00  0.0000E+00  0.0000E+00  0.0000E+00  0.0000E+00  0.0000E+00  0.0000E+00  0.0000E+00  0.0000E+00  0.0000E+00  0.0000E+00  0.0000E+00  0.0000E+00  0.0000E+00  0.0000E+00  0.0000E+00  0.0000E+00  0.0000E+00  0.0000E+00
     -6.358  0.0000E+00  0.0000E+00  0.0000E+00  0.0000E+00  0.0000E+00  0.0000E+00  0.0000E+00  0.0000E+00  0.0000E+00  0.0000E+00  0.0000E+00  0.0000E+00  0.0000E+00  0.0000E+00  0.0000E+00  0.0000E+00  0.0000E+00  0.0000E+00  0.0000E+00  0.0000E+00  0.0000E+00  0.0000E+00  0.0000E+00  0.0000E+00  0.0000E+00  0.0000E+00  0.0000E+00  0.0000E+00  0.0000E+00  0.0000E+00  0.0000E+00  0.0000E+00  0.0000E+00  0.0000E+00  0.0000E+00  0.0000E+00
     -6.260  0.0000E+00  0.0000E+00  0.0000E+00  0.0000E+00  0.0000E+00  0.0000E+00  0.0000E+00  0.0000E+00  0.0000E+00  0.0000E+00  0.0000E+00  0.0000E+00  0.0000E+00  0.0000E+00  0.0000E+00  0.0000E+00  0.0000E+00  0.0000E+00  0.0000E+00  0.0000E+00  0.0000E+00  0.0000E+00  0.0000E+00  0.0000E+00  0.0000E+00  0.0000E+00  0.0000E+00  0.0000E+00  0.0000E+00  0.0000E+00  0.0000E+00  0.0000E+00  0.0000E+00  0.0000E+00  0.0000E+00  0.0000E+00
     -6.161  0.0000E+00  0.0000E+00  0.0000E+00  0.0000E+00  0.0000E+00  0.0000E+00  0.0000E+00  0.0000E+00  0.0000E+00  0.0000E+00  0.0000E+00  0.0000E+00  0.0000E+00  0.0000E+00  0.0000E+00  0.0000E+00  0.0000E+00  0.0000E+00  0.0000E+00  0.0000E+00  0.0000E+00  0.0000E+00  0.0000E+00  0.0000E+00  0.0000E+00  0.0000E+00  0.0000E+00  0.0000E+00  0.0000E+00  0.0000E+00  0.0000E+00  0.0000E+00  0.0000E+00  0.0000E+00  0.0000E+00  0.0000E+00
     -6.063  0.0000E+00  0.0000E+00  0.0000E+00  0.0000E+00  0.0000E+00  0.0000E+00  0.0000E+00  0.0000E+00  0.0000E+00  0.0000E+00  0.0000E+00  0.0000E+00  0.0000E+00  0.0000E+00  0.0000E+00  0.0000E+00  0.0000E+00  0.0000E+00  0.0000E+00  0.0000E+00  0.0000E+00  0.0000E+00  0.0000E+00  0.0000E+00  0.0000E+00  0.0000E+00  0.0000E+00  0.0000E+00  0.0000E+00  0.0000E+00  0.0000E+00  0.0000E+00  0.0000E+00  0.0000E+00  0.0000E+00  0.0000E+00
     -5.965  0.2127E-01  0.2496E-04  0.3292E-04  0.3956E-08  0.1322E-03  0.2305E-06  0.2817E-06 -0.6865E-10  0.1322E-03  0.2304E-06  0.2818E-06 -0.4218E-10  0.1322E-03  0.2302E-06  0.2819E-06  0.1147E-09  0.0000E+00  0.0000E+00  0.0000E+00  0.0000E+00  0.0000E+00  0.0000E+00  0.0000E+00  0.0000E+00  0.0000E+00  0.0000E+00  0.0000E+00  0.0000E+00  0.0000E+00  0.0000E+00  0.0000E+00  0.0000E+00  0.0000E+00  0.0000E+00  0.0000E+00  0.0000E+00
     -5.866  0.2906E-01  0.2962E-04  0.3970E-04  0.4940E-08  0.2225E-03  0.2856E-06  0.3500E-06 -0.1186E-09  0.2225E-03  0.2856E-06  0.3500E-06 -0.2102E-09  0.2225E-03  0.2853E-06  0.3501E-06  0.1524E-09  0.0000E+00  0.0000E+00  0.0000E+00  0.0000E+00  0.0000E+00  0.0000E+00  0.0000E+00  0.0000E+00  0.0000E+00  0.0000E+00  0.0000E+00  0.0000E+00  0.0000E+00  0.0000E+00  0.0000E+00  0.0000E+00  0.0000E+00  0.0000E+00  0.0000E+00  0.0000E+00
     -5.768  0.3775E-01  0.3460E-04  0.4699E-04  0.6036E-08  0.3295E-03  0.3431E-06  0.4212E-06 -0.1663E-09  0.3295E-03  0.3432E-06  0.4211E-06 -0.3930E-09  0.3295E-03  0.3428E-06  0.4212E-06  0.1935E-09  0.0000E+00  0.0000E+00  0.0000E+00  0.0000E+00  0.0000E+00  0.0000E+00  0.0000E+00  0.0000E+00  0.0000E+00  0.0000E+00  0.0000E+00  0.0000E+00  0.0000E+00  0.0000E+00  0.0000E+00  0.0000E+00  0.0000E+00  0.0000E+00  0.0000E+00  0.0000E+00
     -5.670  0.4734E-01  0.3990E-04  0.5478E-04  0.7242E-08  0.4532E-03  0.4031E-06  0.4955E-06 -0.2117E-09  0.4532E-03  0.4033E-06  0.4952E-06 -0.5908E-09  0.4532E-03  0.4028E-06  0.4952E-06  0.2379E-09  0.0000E+00  0.0000E+00  0.0000E+00  0.0000E+00  0.0000E+00  0.0000E+00  0.0000E+00  0.0000E+00  0.0000E+00  0.0000E+00  0.0000E+00  0.0000E+00  0.0000E+00  0.0000E+00  0.0000E+00  0.0000E+00  0.0000E+00  0.0000E+00  0.0000E+00  0.0000E+00
     -5.572  0.5782E-01  0.4550E-04  0.6309E-04  0.8560E-08  0.5937E-03  0.4656E-06  0.5727E-06 -0.2549E-09  0.5937E-03  0.4658E-06  0.5723E-06 -0.8034E-09  0.5937E-03  0.4652E-06  0.5722E-06  0.2857E-09  0.0000E+00  0.0000E+00  0.0000E+00  0.0000E+00  0.0000E+00  0.0000E+00  0.0000E+00  0.0000E+00  0.0000E+00  0.0000E+00  0.0000E+00  0.0000E+00  0.0000E+00  0.0000E+00  0.0000E+00  0.0000E+00  0.0000E+00  0.0000E+00  0.0000E+00  0.0000E+00
     -5.473  0.6920E-01  0.5141E-04  0.7190E-04  0.9988E-08  0.7509E-03  0.5305E-06  0.6530E-06 -0.2958E-09  0.7509E-03  0.5308E-06  0.6524E-06 -0.1031E-08  0.7509E-03  0.5300E-06  0.6522E-06  0.3368E-09  0.0000E+00  0.0000E+00  0.0000E+00  0.0000E+00  0.0000E+00  0.0000E+00  0.0000E+00  0.0000E+00  0.0000E+00  0.0000E+00  0.0000E+00  0.0000E+00  0.0000E+00  0.0000E+00  0.0000E+00  0.0000E+00  0.0000E+00  0.0000E+00  0.0000E+00  0.0000E+00
     -5.375  0.6625E-01  0.3140E-04  0.4876E-04  0.5591E-08  0.9757E-03  0.5553E-06  0.7044E-06  0.3905E-09  0.9757E-03  0.5554E-06  0.7038E-06 -0.7614E-09  0.9757E-03  0.5547E-06  0.7032E-06  0.3393E-09  0.0000E+00  0.0000E+00  0.0000E+00  0.0000E+00  0.0000E+00  0.0000E+00  0.0000E+00  0.0000E+00  0.0000E+00  0.0000E+00  0.0000E+00  0.0000E+00  0.0000E+00  0.0000E+00  0.0000E+00  0.0000E+00  0.0000E+00  0.0000E+00  0.0000E+00  0.0000E+00
     -5.277  0.7100E-01  0.3205E-04  0.5061E-04  0.5425E-08  0.1146E-02  0.5844E-06  0.7398E-06  0.5357E-09  0.1146E-02  0.5842E-06  0.7387E-06 -0.6640E-09  0.1146E-02  0.5834E-06  0.7377E-06  0.3010E-09  0.0000E+00  0.0000E+00  0.0000E+00  0.0000E+00  0.0000E+00  0.0000E+00  0.0000E+00  0.0000E+00  0.0000E+00  0.0000E+00  0.0000E+00  0.0000E+00  0.0000E+00  0.0000E+00  0.0000E+00  0.0000E+00  0.0000E+00  0.0000E+00  0.0000E+00  0.0000E+00
     -5.178  0.7538E-01  0.3260E-04  0.5232E-04  0.5247E-08  0.1319E-02  0.6136E-06  0.7740E-06  0.6074E-09  0.1319E-02  0.6129E-06  0.7722E-06 -0.5789E-09  0.1319E-02  0.6119E-06  0.7709E-06  0.2394E-09  0.0000E+00  0.0000E+00  0.0000E+00  0.0000E+00  0.0000E+00  0.0000E+00  0.0000E+00  0.0000E+00  0.0000E+00  0.0000E+00  0.0000E+00  0.0000E+00  0.0000E+00  0.0000E+00  0.0000E+00  0.0000E+00  0.0000E+00  0.0000E+00  0.0000E+00  0.0000E+00
     -5.080  0.7941E-01  0.3306E-04  0.5390E-04  0.5056E-08  0.1497E-02  0.6427E-06  0.8070E-06  0.6056E-09  0.1497E-02  0.6415E-06  0.8043E-06 -0.5061E-09  0.1497E-02  0.6401E-06  0.8026E-06  0.1544E-09  0.0000E+00  0.0000E+00  0.0000E+00  0.0000E+00  0.0000E+00  0.0000E+00  0.0000E+00  0.0000E+00  0.0000E+00  0.0000E+00  0.0000E+00  0.0000E+00  0.0000E+00  0.0000E+00  0.0000E+00  0.0000E+00  0.0000E+00  0.0000E+00  0.0000E+00  0.0000E+00
     -4.982  0.8308E-01  0.3341E-04  0.5536E-04  0.4854E-08  0.1678E-02  0.6718E-06  0.8390E-06  0.5302E-09  0.1678E-02  0.6699E-06  0.8350E-06 -0.4454E-09  0.1678E-02  0.6682E-06  0.8330E-06  0.4600E-10  0.0000E+00  0.0000E+00  0.0000E+00  0.0000E+00  0.0000E+00  0.0000E+00  0.0000E+00  0.0000E+00  0.0000E+00  0.0000E+00  0.0000E+00  0.0000E+00  0.0000E+00  0.0000E+00  0.0000E+00  0.0000E+00  0.0000E+00  0.0000E+00  0.0000E+00  0.0000E+00
     -4.884  0.8869E-01  0.4399E-04  0.6987E-04  0.4412E-08  0.1894E-02  0.8377E-06  0.1045E-05  0.5871E-09  0.1894E-02  0.8357E-06  0.1040E-05 -0.4831E-09  0.1894E-02  0.8342E-06  0.1038E-05 -0.1967E-09  0.0000E+00  0.0000E+00  0.0000E+00  0.0000E+00  0.0000E+00  0.0000E+00  0.0000E+00  0.0000E+00  0.0000E+00  0.0000E+00  0.0000E+00  0.0000E+00  0.0000E+00  0.0000E+00  0.0000E+00  0.0000E+00  0.0000E+00  0.0000E+00  0.0000E+00  0.0000E+00
     -4.785  0.9541E-01  0.4952E-04  0.7848E-04  0.4162E-08  0.2140E-02  0.9480E-06  0.1173E-05  0.5882E-09  0.2140E-02  0.9458E-06  0.1168E-05 -0.5680E-09  0.2140E-02  0.9442E-06  0.1166E-05 -0.3267E-09  0.0000E+00  0.0000E+00  0.0000E+00  0.0000E+00  0.0000E+00  0.0000E+00  0.0000E+00  0.0000E+00  0.0000E+00  0.0000E+00  0.0000E+00  0.0000E+00  0.0000E+00  0.0000E+00  0.0000E+00  0.0000E+00  0.0000E+00  0.0000E+00  0.0000E+00  0.0000E+00
     -4.687  0.1031E+00  0.5553E-04  0.8790E-04  0.4049E-08  0.2416E-02  0.1062E-05  0.1304E-05  0.5989E-09  0.2416E-02  0.1060E-05  0.1298E-05 -0.7092E-09  0.2416E-02  0.1058E-05  0.1295E-05 -0.4827E-09  0.0000E+00  0.0000E+00  0.0000E+00  0.0000E+00  0.0000E+00  0.0000E+00  0.0000E+00  0.0000E+00  0.0000E+00  0.0000E+00  0.0000E+00  0.0000E+00  0.0000E+00  0.0000E+00  0.0000E+00  0.0000E+00  0.0000E+00  0.0000E+00  0.0000E+00  0.0000E+00
     -4.589  0.1117E+00  0.6201E-04  0.9813E-04  0.4072E-08  0.2720E-02  0.1180E-05  0.1436E-05  0.6194E-09  0.2720E-02  0.1177E-05  0.1429E-05 -0.9066E-09  0.2720E-02  0.1176E-05  0.1426E-05 -0.6646E-09  0.0000E+00  0.0000E+00  0.0000E+00  0.0000E+00  0.0000E+00  0.0000E+00  0.0000E+00  0.0000E+00  0.0000E+00  0.0000E+00  0.0000E+00  0.0000E+00  0.0000E+00  0.0000E+00  0.0000E+00  0.0000E+00  0.0000E+00  0.0000E+00  0.0000E+00  0.0000E+00
     -4.490  0.1224E+00  0.7613E-04  0.1189E-03  0.9214E-08  0.3076E-02  0.1452E-05  0.1768E-05  0.1618E-09  0.3076E-02  0.1449E-05  0.1761E-05 -0.8066E-09  0.3076E-02  0.1446E-05  0.1758E-05 -0.4652E-09  0.0000E+00  0.0000E+00  0.0000E+00  0.0000E+00  0.0000E+00  0.0000E+00  0.0000E+00  0.0000E+00  0.0000E+00  0.0000E+00  0.0000E+00  0.0000E+00  0.0000E+00  0.0000E+00  0.0000E+00  0.0000E+00  0.0000E+00  0.0000E+00  0.0000E+00  0.0000E+00
     -4.392  0.1306E+00  0.7074E-04  0.1151E-03  0.1055E-07  0.3460E-02  0.1373E-05  0.1642E-05  0.2977E-09  0.3460E-02  0.1369E-05  0.1633E-05 -0.1405E-08  0.3460E-02  0.1366E-05  0.1630E-05 -0.4902E-09  0.0000E+00  0.0000E+00  0.0000E+00  0.0000E+00  0.0000E+00  0.0000E+00  0.0000E+00  0.0000E+00  0.0000E+00  0.0000E+00  0.0000E+00  0.0000E+00  0.0000E+00  0.0000E+00  0.0000E+00  0.0000E+00  0.0000E+00  0.0000E+00  0.0000E+00  0.0000E+00
     -4.294  0.1395E+00  0.7137E-04  0.1185E-03  0.1012E-07  0.3828E-02  0.1358E-05  0.1571E-05  0.1163E-09  0.3828E-02  0.1354E-05  0.1561E-05 -0.1949E-08  0.3828E-02  0.1351E-05  0.1557E-05 -0.6246E-09  0.0000E+00  0.0000E+00  0.0000E+00  0.0000E+00  0.0000E+00  0.0000E+00  0.0000E+00  0.0000E+00  0.0000E+00  0.0000E+00  0.0000E+00  0.0000E+00  0.0000E+00  0.0000E+00  0.0000E+00  0.0000E+00  0.0000E+00  0.0000E+00  0.0000E+00  0.0000E+00
     -4.196  0.1474E+00  0.7156E-04  0.1214E-03  0.9497E-08  0.4191E-02  0.1337E-05  0.1484E-05  0.5549E-10  0.4191E-02  0.1333E-05  0.1474E-05 -0.2566E-08  0.4191E-02  0.1329E-05  0.1470E-05 -0.7189E-09  0.0000E+00  0.0000E+00  0.0000E+00  0.0000E+00  0.0000E+00  0.0000E+00  0.0000E+00  0.0000E+00  0.0000E+00  0.0000E+00  0.0000E+00  0.0000E+00  0.0000E+00  0.0000E+00  0.0000E+00  0.0000E+00  0.0000E+00  0.0000E+00  0.0000E+00  0.0000E+00
     -4.097  0.1545E+00  0.7130E-04  0.1237E-03  0.8683E-08  0.4547E-02  0.1308E-05  0.1382E-05  0.1154E-09  0.4547E-02  0.1304E-05  0.1371E-05 -0.3258E-08  0.4547E-02  0.1301E-05  0.1367E-05 -0.7733E-09  0.0000E+00  0.0000E+00  0.0000E+00  0.0000E+00  0.0000E+00  0.0000E+00  0.0000E+00  0.0000E+00  0.0000E+00  0.0000E+00  0.0000E+00  0.0000E+00  0.0000E+00  0.0000E+00  0.0000E+00  0.0000E+00  0.0000E+00  0.0000E+00  0.0000E+00  0.0000E+00
     -3.999  0.1777E+00  0.2412E-03  0.3599E-03  0.1055E-06  0.5480E-02  0.6357E-05  0.8062E-05 -0.3044E-08  0.5480E-02  0.6348E-05  0.8055E-05 -0.9346E-09  0.5480E-02  0.6339E-05  0.8056E-05  0.6506E-08  0.0000E+00  0.0000E+00  0.0000E+00  0.0000E+00  0.0000E+00  0.0000E+00  0.0000E+00  0.0000E+00  0.0000E+00  0.0000E+00  0.0000E+00  0.0000E+00  0.0000E+00  0.0000E+00  0.0000E+00  0.0000E+00  0.0000E+00  0.0000E+00  0.0000E+00  0.0000E+00
     -3.901  0.2238E+00  0.2209E-03  0.3437E-03 -0.1046E-06  0.7061E-02  0.5072E-05  0.6145E-05  0.4530E-08  0.7061E-02  0.5079E-05  0.6126E-05 -0.9966E-08  0.7061E-02  0.5086E-05  0.6118E-05 -0.1128E-07  0.0000E+00  0.0000E+00  0.0000E+00  0.0000E+00  0.0000E+00  0.0000E+00  0.0000E+00  0.0000E+00  0.0000E+00  0.0000E+00  0.0000E+00  0.0000E+00  0.0000E+00  0.0000E+00  0.0000E+00  0.0000E+00  0.0000E+00  0.0000E+00  0.0000E+00  0.0000E+00
     -3.802  0.1799E+00  0.5048E-04  0.1058E-03 -0.1252E-07  0.6176E-02  0.3644E-06 -0.2778E-06  0.4187E-08  0.6176E-02  0.3645E-06 -0.2850E-06 -0.8509E-08  0.6176E-02  0.3647E-06 -0.2843E-06 -0.2133E-08  0.0000E+00  0.0000E+00  0.0000E+00  0.0000E+00  0.0000E+00  0.0000E+00  0.0000E+00  0.0000E+00  0.0000E+00  0.0000E+00  0.0000E+00  0.0000E+00  0.0000E+00  0.0000E+00  0.0000E+00  0.0000E+00  0.0000E+00  0.0000E+00  0.0000E+00  0.0000E+00
     -3.704  0.1771E+00  0.4291E-04  0.9623E-04 -0.6752E-08  0.6277E-02  0.4699E-07 -0.7972E-06  0.5204E-08  0.6277E-02  0.4627E-07 -0.8032E-06 -0.9131E-08  0.6277E-02  0.4709E-07 -0.8013E-06 -0.1525E-08  0.0000E+00  0.0000E+00  0.0000E+00  0.0000E+00  0.0000E+00  0.0000E+00  0.0000E+00  0.0000E+00  0.0000E+00  0.0000E+00  0.0000E+00  0.0000E+00  0.0000E+00  0.0000E+00  0.0000E+00  0.0000E+00  0.0000E+00  0.0000E+00  0.0000E+00  0.0000E+00
     -3.606  0.1726E+00  0.3470E-04  0.8527E-04 -0.7639E-09  0.6306E-02 -0.2678E-06 -0.1297E-05  0.5870E-08  0.6306E-02 -0.2693E-06 -0.1302E-05 -0.9428E-08  0.6306E-02 -0.2681E-06 -0.1299E-05 -0.9124E-09  0.0000E+00  0.0000E+00  0.0000E+00  0.0000E+00  0.0000E+00  0.0000E+00  0.0000E+00  0.0000E+00  0.0000E+00  0.0000E+00  0.0000E+00  0.0000E+00  0.0000E+00  0.0000E+00  0.0000E+00  0.0000E+00  0.0000E+00  0.0000E+00  0.0000E+00  0.0000E+00
     -3.508  0.1663E+00  0.2586E-04  0.7294E-04  0.5448E-08  0.6263E-02 -0.5799E-06 -0.1777E-05  0.6186E-08  0.6263E-02 -0.5823E-06 -0.1781E-05 -0.9398E-08  0.6263E-02 -0.5808E-06 -0.1777E-05 -0.2954E-09  0.0000E+00  0.0000E+00  0.0000E+00  0.0000E+00  0.0000E+00  0.0000E+00  0.0000E+00  0.0000E+00  0.0000E+00  0.0000E+00  0.0000E+00  0.0000E+00  0.0000E+00  0.0000E+00  0.0000E+00  0.0000E+00  0.0000E+00  0.0000E+00  0.0000E+00  0.0000E+00
     -3.409  0.1581E+00  0.1638E-04  0.5927E-04  0.1188E-07  0.6149E-02 -0.8895E-06 -0.2237E-05  0.6151E-08  0.6149E-02 -0.8926E-06 -0.2240E-05 -0.9042E-08  0.6149E-02 -0.8911E-06 -0.2236E-05  0.3262E-09  0.0000E+00  0.0000E+00  0.0000E+00  0.0000E+00  0.0000E+00  0.0000E+00  0.0000E+00  0.0000E+00  0.0000E+00  0.0000E+00  0.0000E+00  0.0000E+00  0.0000E+00  0.0000E+00  0.0000E+00  0.0000E+00  0.0000E+00  0.0000E+00  0.0000E+00  0.0000E+00
     -3.311  0.1540E+00  0.9007E-04  0.1616E-03  0.3726E-08  0.6191E-02  0.1993E-05  0.1700E-05  0.9315E-08  0.6191E-02  0.1990E-05  0.1696E-05 -0.1182E-07  0.6191E-02  0.1994E-05  0.1699E-05 -0.5152E-09  0.0000E+00  0.0000E+00  0.0000E+00  0.0000E+00  0.0000E+00  0.0000E+00  0.0000E+00  0.0000E+00  0.0000E+00  0.0000E+00  0.0000E+00  0.0000E+00  0.0000E+00  0.0000E+00  0.0000E+00  0.0000E+00  0.0000E+00  0.0000E+00  0.0000E+00  0.0000E+00