<?xml version="1.0" encoding="ISO-8859-1"?>
<modeling>
 <generator>
  <i name="program" type="string">vasp </i>
  <i name="version" type="string">5.4.1  </i>
  <i name="subversion" type="string">05Feb16 (build Oct 11 2016 12:26:42) complex                          parallel </i>
  <i name="platform" type="string">UNITY_VASP_5.4.1 </i>
  <i name="date" type="string">2018 02 08 </i>
  <i name="time" type="string">15:38:53 </i>
 </generator>
 <incar>
  <i type="string" name="PREC">a</i>
  <i type="string" name="ALGO"> V</i>
  <i name="ENCUT">    350.00000000</i>
  <i type="int" name="ISMEAR">     0</i>
  <v type="int" name="KPOINT_BSE">    -1     0     0     0</v>
 </incar>
 <kpoints>
  <generation param="Gamma">
   <v type="int" name="divisions">       7        7        7 </v>
   <v name="usershift">      0.00000000       0.00000000       0.00000000 </v>
   <v name="genvec1">      0.14285714       0.00000000       0.00000000 </v>
   <v name="genvec2">      0.00000000       0.14285714       0.00000000 </v>
   <v name="genvec3">      0.00000000       0.00000000       0.14285714 </v>
   <v name="shift">      0.00000000       0.00000000       0.00000000 </v>
  </generation>
  <varray name="kpointlist" >
   <v>       0.00000000       0.00000000       0.00000000 </v>
   <v>       0.14285714       0.00000000       0.00000000 </v>
   <v>       0.28571429       0.00000000       0.00000000 </v>
   <v>       0.42857143       0.00000000       0.00000000 </v>
   <v>       0.00000000       0.14285714       0.00000000 </v>
   <v>       0.14285714       0.14285714       0.00000000 </v>
   <v>       0.28571429       0.14285714       0.00000000 </v>
   <v>       0.42857143       0.14285714       0.00000000 </v>
   <v>       0.00000000       0.28571429       0.00000000 </v>
   <v>       0.14285714       0.28571429       0.00000000 </v>
   <v>       0.28571429       0.28571429       0.00000000 </v>
   <v>       0.42857143       0.28571429       0.00000000 </v>
   <v>       0.00000000       0.42857143       0.00000000 </v>
   <v>       0.14285714       0.42857143       0.00000000 </v>
   <v>       0.28571429       0.42857143       0.00000000 </v>
   <v>       0.42857143       0.42857143       0.00000000 </v>
   <v>       0.00000000       0.14285714       0.14285714 </v>
   <v>       0.14285714       0.14285714       0.14285714 </v>
   <v>       0.28571429       0.14285714       0.14285714 </v>
   <v>       0.42857143       0.14285714       0.14285714 </v>
   <v>       0.00000000       0.28571429       0.14285714 </v>
   <v>       0.14285714       0.28571429       0.14285714 </v>
   <v>       0.28571429       0.28571429       0.14285714 </v>
   <v>       0.42857143       0.28571429       0.14285714 </v>
   <v>       0.00000000       0.42857143       0.14285714 </v>
   <v>       0.14285714       0.42857143       0.14285714 </v>
   <v>       0.28571429       0.42857143       0.14285714 </v>
   <v>       0.42857143       0.42857143       0.14285714 </v>
   <v>       0.00000000      -0.42857143       0.14285714 </v>
   <v>       0.14285714      -0.42857143       0.14285714 </v>
   <v>       0.28571429      -0.42857143       0.14285714 </v>
   <v>       0.42857143      -0.42857143       0.14285714 </v>
   <v>       0.00000000      -0.28571429       0.14285714 </v>
   <v>       0.14285714      -0.28571429       0.14285714 </v>
   <v>       0.28571429      -0.28571429       0.14285714 </v>
   <v>       0.42857143      -0.28571429       0.14285714 </v>
   <v>       0.00000000      -0.14285714       0.14285714 </v>
   <v>       0.14285714      -0.14285714       0.14285714 </v>
   <v>       0.28571429      -0.14285714       0.14285714 </v>
   <v>       0.42857143      -0.14285714       0.14285714 </v>
   <v>       0.00000000       0.28571429       0.28571429 </v>
   <v>       0.14285714       0.28571429       0.28571429 </v>
   <v>       0.28571429       0.28571429       0.28571429 </v>
   <v>       0.42857143       0.28571429       0.28571429 </v>
   <v>       0.00000000       0.42857143       0.28571429 </v>
   <v>       0.14285714       0.42857143       0.28571429 </v>
   <v>       0.28571429       0.42857143       0.28571429 </v>
   <v>       0.42857143       0.42857143       0.28571429 </v>
   <v>       0.00000000      -0.42857143       0.28571429 </v>
   <v>       0.14285714      -0.42857143       0.28571429 </v>
   <v>       0.28571429      -0.42857143       0.28571429 </v>
   <v>       0.42857143      -0.42857143       0.28571429 </v>
   <v>       0.00000000      -0.28571429       0.28571429 </v>
   <v>       0.14285714      -0.28571429       0.28571429 </v>
   <v>       0.28571429      -0.28571429       0.28571429 </v>
   <v>       0.42857143      -0.28571429       0.28571429 </v>
   <v>       0.00000000       0.42857143       0.42857143 </v>
   <v>       0.14285714       0.42857143       0.42857143 </v>
   <v>       0.28571429       0.42857143       0.42857143 </v>
   <v>       0.42857143       0.42857143       0.42857143 </v>
   <v>       0.00000000      -0.42857143       0.42857143 </v>
   <v>       0.14285714      -0.42857143       0.42857143 </v>
   <v>       0.28571429      -0.42857143       0.42857143 </v>
   <v>       0.42857143      -0.42857143       0.42857143 </v>
  </varray>
  <varray name="weights" >
   <v>       0.00291545 </v>
   <v>       0.00583090 </v>
   <v>       0.00583090 </v>
   <v>       0.00583090 </v>
   <v>       0.01166181 </v>
   <v>       0.02332362 </v>
   <v>       0.02332362 </v>
   <v>       0.02332362 </v>
   <v>       0.01166181 </v>
   <v>       0.02332362 </v>
   <v>       0.02332362 </v>
   <v>       0.02332362 </v>
   <v>       0.01166181 </v>
   <v>       0.02332362 </v>
   <v>       0.02332362 </v>
   <v>       0.02332362 </v>
   <v>       0.00583090 </v>
   <v>       0.01166181 </v>
   <v>       0.01166181 </v>
   <v>       0.01166181 </v>
   <v>       0.01166181 </v>
   <v>       0.02332362 </v>
   <v>       0.02332362 </v>
   <v>       0.02332362 </v>
   <v>       0.01166181 </v>
   <v>       0.02332362 </v>
   <v>       0.02332362 </v>
   <v>       0.02332362 </v>
   <v>       0.01166181 </v>
   <v>       0.02332362 </v>
   <v>       0.02332362 </v>
   <v>       0.02332362 </v>
   <v>       0.01166181 </v>
   <v>       0.02332362 </v>
   <v>       0.02332362 </v>
   <v>       0.02332362 </v>
   <v>       0.00583090 </v>
   <v>       0.01166181 </v>
   <v>       0.01166181 </v>
   <v>       0.01166181 </v>
   <v>       0.00583090 </v>
   <v>       0.01166181 </v>
   <v>       0.01166181 </v>
   <v>       0.01166181 </v>
   <v>       0.01166181 </v>
   <v>       0.02332362 </v>
   <v>       0.02332362 </v>
   <v>       0.02332362 </v>
   <v>       0.01166181 </v>
   <v>       0.02332362 </v>
   <v>       0.02332362 </v>
   <v>       0.02332362 </v>
   <v>       0.00583090 </v>
   <v>       0.01166181 </v>
   <v>       0.01166181 </v>
   <v>       0.01166181 </v>
   <v>       0.00583090 </v>
   <v>       0.01166181 </v>
   <v>       0.01166181 </v>
   <v>       0.01166181 </v>
   <v>       0.00583090 </v>
   <v>       0.01166181 </v>
   <v>       0.01166181 </v>
   <v>       0.01166181 </v>
  </varray>
 </kpoints>
 <parameters>
  <separator name="general" >
   <i type="string" name="SYSTEM">unknown system</i>
   <i type="logical" name="LCOMPAT"> F  </i>
  </separator>
  <separator name="electronic" >
   <i type="string" name="PREC">a</i>
   <i name="ENMAX">    350.00000000</i>
   <i name="ENAUG">    322.06900000</i>
   <i name="EDIFF">      0.00010000</i>
   <i type="int" name="IALGO">    48</i>
   <i type="int" name="IWAVPR">    10</i>
   <i type="int" name="NBANDS">    21</i>
   <i name="NELECT">     32.00000000</i>
   <i type="int" name="TURBO">     0</i>
   <i type="int" name="IRESTART">     0</i>
   <i type="int" name="NREBOOT">     0</i>
   <i type="int" name="NMIN">     0</i>
   <i name="EREF">      0.00000000</i>
   <separator name="electronic smearing" >
    <i type="int" name="ISMEAR">     0</i>
    <i name="SIGMA">      0.20000000</i>
    <i name="KSPACING">      0.50000000</i>
    <i type="logical" name="KGAMMA"> T  </i>
   </separator>
   <separator name="electronic projectors" >
    <i type="logical" name="LREAL"> F  </i>
    <v name="ROPT">      0.00000000</v>
    <i type="int" name="LMAXPAW">  -100</i>
    <i type="int" name="LMAXMIX">     2</i>
    <i type="logical" name="NLSPLINE"> F  </i>
   </separator>
   <separator name="electronic startup" >
    <i type="int" name="ISTART">     1</i>
    <i type="int" name="ICHARG">     0</i>
    <i type="int" name="INIWAV">     1</i>
   </separator>
   <separator name="electronic spin" >
    <i type="int" name="ISPIN">     1</i>
    <i type="logical" name="LNONCOLLINEAR"> F  </i>
    <v name="MAGMOM">      1.00000000      1.00000000      1.00000000      1.00000000      1.00000000      1.00000000      1.00000000      1.00000000</v>
    <i name="NUPDOWN">     -1.00000000</i>
    <i type="logical" name="LSORBIT"> F  </i>
    <v name="SAXIS">      0.00000000      0.00000000      1.00000000</v>
    <i type="logical" name="LSPIRAL"> F  </i>
    <v name="QSPIRAL">      0.00000000      0.00000000      0.00000000</v>
    <i type="logical" name="LZEROZ"> F  </i>
   </separator>
   <separator name="electronic exchange-correlation" >
    <i type="logical" name="LASPH"> F  </i>
    <i type="logical" name="LMETAGGA"> F  </i>
   </separator>
   <separator name="electronic convergence" >
    <i type="int" name="NELM">    60</i>
    <i type="int" name="NELMDL">     0</i>
    <i type="int" name="NELMIN">     2</i>
    <i name="ENINI">    350.00000000</i>
    <separator name="electronic convergence detail" >
     <i type="logical" name="LDIAG"> T  </i>
     <i type="logical" name="LSUBROT"> F  </i>
     <i name="WEIMIN">      0.00000000</i>
     <i name="EBREAK">      0.00000119</i>
     <i name="DEPER">      0.30000000</i>
     <i type="int" name="NRMM">     4</i>
     <i name="TIME">      0.40000000</i>
    </separator>
   </separator>
   <separator name="electronic mixer" >
    <i name="AMIX">      0.40000000</i>
    <i name="BMIX">      1.00000000</i>
    <i name="AMIN">      0.10000000</i>
    <i name="AMIX_MAG">      1.60000000</i>
    <i name="BMIX_MAG">      1.00000000</i>
    <separator name="electronic mixer details" >
     <i type="int" name="IMIX">     4</i>
     <i type="logical" name="MIXFIRST"> F  </i>
     <i type="int" name="MAXMIX">   -45</i>
     <i name="WC">    100.00000000</i>
     <i type="int" name="INIMIX">     1</i>
     <i type="int" name="MIXPRE">     1</i>
     <i type="int" name="MREMOVE">     5</i>
    </separator>
   </separator>
   <separator name="electronic dipolcorrection" >
    <i type="logical" name="LDIPOL"> F  </i>
    <i type="logical" name="LMONO"> F  </i>
    <i type="int" name="IDIPOL">     0</i>
    <i name="EPSILON">      1.00000000</i>
    <v name="DIPOL">   -100.00000000   -100.00000000   -100.00000000</v>
    <i name="EFIELD">      0.00000000</i>
   </separator>
  </separator>
  <separator name="grids" >
   <i type="int" name="NGX">    36</i>
   <i type="int" name="NGY">    36</i>
   <i type="int" name="NGZ">    36</i>
   <i type="int" name="NGXF">    72</i>
   <i type="int" name="NGYF">    72</i>
   <i type="int" name="NGZF">    72</i>
   <i type="logical" name="ADDGRID"> F  </i>
  </separator>
  <separator name="ionic" >
   <i type="int" name="NSW">     0</i>
   <i type="int" name="IBRION">    -1</i>
   <i type="int" name="ISIF">     2</i>
   <i name="PSTRESS">      0.00000000</i>
   <i name="EDIFFG">      0.00100000</i>
   <i type="int" name="NFREE">     0</i>
   <i name="POTIM">      0.50000000</i>
   <i name="SMASS">     -3.00000000</i>
   <i name="SCALEE">      1.00000000</i>
  </separator>
  <separator name="ionic md" >
   <i name="TEBEG">      0.00010000</i>
   <i name="TEEND">      0.00010000</i>
   <i type="int" name="NBLOCK">     1</i>
   <i type="int" name="KBLOCK">     1</i>
   <i type="int" name="NPACO">   256</i>
   <i name="APACO">     16.00000000</i>
  </separator>
  <separator name="symmetry" >
   <i type="int" name="ISYM">     2</i>
   <i name="SYMPREC">      0.00001000</i>
  </separator>
  <separator name="dos" >
   <i type="logical" name="LORBIT"> F  </i>
   <v name="RWIGS">     -1.00000000</v>
   <i type="int" name="NEDOS">   301</i>
   <i name="EMIN">     10.00000000</i>
   <i name="EMAX">    -10.00000000</i>
   <i name="EFERMI">      0.00000000</i>
  </separator>
  <separator name="writing" >
   <i type="int" name="NWRITE">     2</i>
   <i type="logical" name="LWAVE"> T  </i>
   <i type="logical" name="LCHARG"> T  </i>
   <i type="logical" name="LPARD"> F  </i>
   <i type="logical" name="LVTOT"> F  </i>
   <i type="logical" name="LVHAR"> F  </i>
   <i type="logical" name="LELF"> F  </i>
   <i type="logical" name="LOPTICS"> F  </i>
   <v name="STM">      0.00000000      0.00000000      0.00000000      0.00000000      0.00000000      0.00000000      0.00000000</v>
  </separator>
  <separator name="performance" >
   <i type="int" name="NPAR">     1</i>
   <i type="int" name="NSIM">     4</i>
   <i type="int" name="NBLK">    -1</i>
   <i type="logical" name="LPLANE"> T  </i>
   <i type="logical" name="LSCALAPACK"> T  </i>
   <i type="logical" name="LSCAAWARE"> F  </i>
   <i type="logical" name="LSCALU"> F  </i>
   <i type="logical" name="LASYNC"> F  </i>
   <i type="logical" name="LORBITALREAL"> F  </i>
  </separator>
  <separator name="miscellaneous" >
   <i type="int" name="IDIOT">     3</i>
   <i type="logical" name="LMUSIC"> F  </i>
   <v name="POMASS">     28.08500000</v>
   <v name="DARWINR">      0.00000000</v>
   <v name="DARWINV">      1.00000000</v>
   <i type="logical" name="LCORR"> T  </i>
  </separator>
  <i type="logical" name="GGA_COMPAT"> T  </i>
  <i type="logical" name="LBERRY"> F  </i>
  <i type="int" name="ICORELEVEL">     0</i>
  <i type="logical" name="LDAU"> F  </i>
  <i type="int" name="I_CONSTRAINED_M">     0</i>
  <separator name="electronic exchange-correlation" >
   <i type="string" name="GGA">--</i>
   <i type="int" name="VOSKOWN">     0</i>
   <i type="logical" name="LHFCALC"> F  </i>
   <i type="string" name="PRECFOCK"></i>
   <i type="logical" name="LSYMGRAD"> F  </i>
   <i type="logical" name="LHFONE"> F  </i>
   <i type="logical" name="LRHFCALC"> F  </i>
   <i type="logical" name="LTHOMAS"> F  </i>
   <i type="logical" name="LMODELHF"> F  </i>
   <i name="ENCUT4O">     -1.00000000</i>
   <i type="int" name="EXXOEP">     0</i>
   <i type="int" name="FOURORBIT">     0</i>
   <i name="AEXX">      0.00000000</i>
   <i name="HFALPHA">      0.00000000</i>
   <i name="MCALPHA">      0.00000000</i>
   <i name="ALDAX">      1.00000000</i>
   <i name="AGGAX">      1.00000000</i>
   <i name="ALDAC">      1.00000000</i>
   <i name="AGGAC">      1.00000000</i>
   <i type="int" name="NKREDX">     1</i>
   <i type="int" name="NKREDY">     1</i>
   <i type="int" name="NKREDZ">     1</i>
   <i type="logical" name="SHIFTRED"> F  </i>
   <i type="logical" name="ODDONLY"> F  </i>
   <i type="logical" name="EVENONLY"> F  </i>
   <i type="int" name="LMAXFOCK">     0</i>
   <i type="int" name="NMAXFOCKAE">     0</i>
   <i type="logical" name="LFOCKAEDFT"> F  </i>
   <i name="HFSCREEN">      0.00000000</i>
   <i name="HFSCREENC">      0.00000000</i>
   <i type="int" name="NBANDSGWLOW">     0</i>
  </separator>
  <separator name="vdW DFT" >
   <i type="logical" name="LUSE_VDW"> F  </i>
   <i name="Zab_VDW">     -0.84910000</i>
   <i name="PARAM1">      0.12340000</i>
   <i name="PARAM2">      1.00000000</i>
   <i name="PARAM3">      0.00000000</i>
  </separator>
  <separator name="model GW" >
   <i type="int" name="MODEL_GW">     0</i>
   <i name="MODEL_EPS0">     12.24162890</i>
   <i name="MODEL_ALPHA">      1.00000000</i>
  </separator>
  <separator name="linear response parameters" >
   <i type="logical" name="LEPSILON"> F  </i>
   <i type="logical" name="LRPA"> F  </i>
   <i type="logical" name="LNABLA"> F  </i>
   <i type="logical" name="LVEL"> F  </i>
   <i type="int" name="KINTER">******</i>
   <i name="CSHIFT">      0.10000000</i>
   <i name="OMEGAMAX">     -1.00000000</i>
   <i name="DEG_THRESHOLD">      0.00200000</i>
  </separator>
  <separator name="orbital magnetization" >
   <i type="logical" name="NUCIND"> F  </i>
   <v name="MAGPOS">      0.00000000      0.00000000      0.00000000</v>
   <i type="logical" name="LNICSALL"> T  </i>
   <i type="logical" name="ORBITALMAG"> F  </i>
   <i type="logical" name="LMAGBLOCH"> F  </i>
   <i type="logical" name="LCHIMAG"> F  </i>
   <i type="logical" name="LGAUGE"> T  </i>
   <i type="int" name="MAGATOM">     0</i>
   <v name="MAGDIPOL">      0.00000000      0.00000000      0.00000000</v>
   <v name="AVECCONST">      0.00000000      0.00000000      0.00000000</v>
  </separator>
  <separator name="response functions" >
   <i type="logical" name="LADDER"> F  </i>
   <i type="logical" name="LFXC"> F  </i>
   <i type="logical" name="LHARTREE"> T  </i>
   <i type="int" name="IBSE">     0</i>
   <v type="int" name="KPOINT">    -1     0     0     0</v>
   <i type="logical" name="LTCTE"> F  </i>
   <i type="logical" name="LTETE"> F  </i>
   <i type="logical" name="LTRIPLET"> F  </i>
   <i type="logical" name="LFXCEPS"> F  </i>
   <i type="logical" name="LFXHEG"> F  </i>
   <i type="int" name="NATURALO">     0</i>
   <i type="logical" name="L2ORDER"> F  </i>
   <i type="logical" name="LUSEW"> F  </i>
   <i name="ENCUTGW">     -2.00000000</i>
   <i name="ENCUTGWSOFT">     -2.00000000</i>
   <i name="ENCUTLF">     -1.00000000</i>
   <i type="int" name="LMAXMP2">    -1</i>
   <i name="SCISSOR">      0.00000000</i>
   <i type="int" name="NOMEGA">     0</i>
   <i type="int" name="NOMEGAR">     0</i>
   <i type="int" name="NBANDSGW">    -1</i>
   <i type="int" name="NBANDSO">    -1</i>
   <i type="int" name="NBANDSV">    -1</i>
   <i type="int" name="NELM">     1</i>
   <i type="int" name="NELMHF">     1</i>
   <i type="int" name="DIM">     3</i>
   <i type="int" name="ANTIRES">     0</i>
   <i name="OMEGAMAX">    -30.00000000</i>
   <i name="OMEGAMIN">    -30.00000000</i>
   <i name="OMEGATL">   -200.00000000</i>
   <i type="int" name="OMEGAGRID">     0</i>
   <i name="CSHIFT">     -0.10000000</i>
   <i type="logical" name="SELFENERGY"> F  </i>
   <i type="logical" name="LSPECTRAL"> F  </i>
   <i type="logical" name="LSPECTRALGW"> F  </i>
   <i type="logical" name="LSINGLES"> F  </i>
   <i type="logical" name="LFERMIGW"> F  </i>
   <i type="logical" name="ODDONLYGW"> F  </i>
   <i type="logical" name="EVENONLYGW"> F  </i>
   <i type="int" name="NKREDLFX">     1</i>
   <i type="int" name="NKREDLFY">     1</i>
   <i type="int" name="NKREDLFZ">     1</i>
   <i type="int" name="MAXMEM">  1800</i>
   <i type="int" name="TELESCOPE">     0</i>
   <i type="int" name="TAUPAR">     1</i>
   <i type="int" name="OMEGAPAR">    -1</i>
   <i name="LAMBDA">      1.00000000</i>
  </separator>
  <separator name="External order field" >
   <i name="OFIELD_KAPPA">      0.00000000</i>
   <v name="OFIELD_K">      0.00000000      0.00000000      0.00000000</v>
   <i name="OFIELD_Q6_NEAR">      0.00000000</i>
   <i name="OFIELD_Q6_FAR">      0.00000000</i>
   <i name="OFIELD_A">      0.00000000</i>
  </separator>
 </parameters>
 <atominfo>
  <atoms>       8 </atoms>
  <types>       1 </types>
  <array name="atoms" >
   <dimension dim="1">ion</dimension>
   <field type="string">element</field>
   <field type="int">atomtype</field>
   <set>
    <rc><c>Si</c><c>   1</c></rc>
    <rc><c>Si</c><c>   1</c></rc>
    <rc><c>Si</c><c>   1</c></rc>
    <rc><c>Si</c><c>   1</c></rc>
    <rc><c>Si</c><c>   1</c></rc>
    <rc><c>Si</c><c>   1</c></rc>
    <rc><c>Si</c><c>   1</c></rc>
    <rc><c>Si</c><c>   1</c></rc>
   </set>
  </array>
  <array name="atomtypes" >
   <dimension dim="1">type</dimension>
   <field type="int">atomspertype</field>
   <field type="string">element</field>
   <field>mass</field>
   <field>valence</field>
   <field type="string">pseudopotential</field>
   <set>
    <rc><c>   8</c><c>Si</c><c>     28.08500000</c><c>      4.00000000</c><c> PAW_PBE Si 05Jan2001                   </c></rc>
   </set>
  </array>
 </atominfo>
 <structure name="initialpos" >
  <crystal>
   <varray name="basis" >
    <v>       5.46503124       0.00000000       0.00000000 </v>
    <v>       0.00000000       5.46503124       0.00000000 </v>
    <v>       0.00000000       0.00000000       5.46503124 </v>
   </varray>
   <i name="volume">    163.22171868 </i>
   <varray name="rec_basis" >
    <v>       0.18298157       0.00000000       0.00000000 </v>
    <v>       0.00000000       0.18298157       0.00000000 </v>
    <v>       0.00000000       0.00000000       0.18298157 </v>
   </varray>
  </crystal>
  <varray name="positions" >
   <v>       0.00000000       0.00000000       0.00000000 </v>
   <v>       0.00000000       0.50000000       0.50000000 </v>
   <v>       0.45000000       0.50000000       0.00000000 </v>
   <v>       0.50000000       0.00000000       0.50000000 </v>
   <v>       0.75000000       0.25000000       0.75000000 </v>
   <v>       0.25000000       0.25000000       0.25000000 </v>
   <v>       0.25000000       0.75000000       0.75000000 </v>
   <v>       0.75000000       0.75000000       0.25000000 </v>
  </varray>
 </structure>
 <calculation>
  <scstep>
   <time name="diag">    0.43    0.43</time>
   <time name="diis">    0.55    0.55</time>
   <time name="orth">    0.18    0.18</time>
   <time name="total">    1.25    1.26</time>
   <energy>
    <i name="alphaZ">     13.19945063 </i>
    <i name="ewald">   -906.87732482 </i>
    <i name="hartreedc">    -61.27094185 </i>
    <i name="XCdc">    -72.19344901 </i>
    <i name="pawpsdc">    295.63683751 </i>
    <i name="pawaedc">   -155.74084221 </i>
    <i name="eentropy">     -0.00236652 </i>
    <i name="bandstr">     19.81129978 </i>
    <i name="atom">    824.52501657 </i>
    <i name="e_fr_energy">    -42.91231991 </i>
    <i name="e_wo_entrp">    -42.90995340 </i>
    <i name="e_0_energy">    -42.91113666 </i>
   </energy>
  </scstep>
  <scstep>
   <time name="diag">    0.43    0.43</time>
   <time name="diis">    0.46    0.46</time>
   <time name="orth">    0.18    0.18</time>
   <time name="total">    1.08    1.08</time>
   <energy>
    <i name="alphaZ">     13.19945063 </i>
    <i name="ewald">   -906.87732482 </i>
    <i name="hartreedc">    -61.27010303 </i>
    <i name="XCdc">    -72.19351732 </i>
    <i name="pawpsdc">    295.63542171 </i>
    <i name="pawaedc">   -155.73939621 </i>
    <i name="eentropy">     -0.00236711 </i>
    <i name="bandstr">     19.81049981 </i>
    <i name="atom">    824.52501657 </i>
    <i name="e_fr_energy">    -42.91231976 </i>
    <i name="e_wo_entrp">    -42.90995265 </i>
    <i name="e_0_energy">    -42.91113621 </i>
   </energy>
  </scstep>
  <structure>
   <crystal>
    <varray name="basis" >
     <v>       5.46503124       0.00000000       0.00000000 </v>
     <v>       0.00000000       5.46503124       0.00000000 </v>
     <v>       0.00000000       0.00000000       5.46503124 </v>
    </varray>
    <i name="volume">    163.22171868 </i>
    <varray name="rec_basis" >
     <v>       0.18298157       0.00000000       0.00000000 </v>
     <v>       0.00000000       0.18298157       0.00000000 </v>
     <v>       0.00000000       0.00000000       0.18298157 </v>
    </varray>
   </crystal>
   <varray name="positions" >
    <v>       0.00000000       0.00000000       0.00000000 </v>
    <v>       0.00000000       0.50000000       0.50000000 </v>
    <v>       0.45000000       0.50000000       0.00000000 </v>
    <v>       0.50000000       0.00000000       0.50000000 </v>
    <v>       0.75000000       0.25000000       0.75000000 </v>
    <v>       0.25000000       0.25000000       0.25000000 </v>
    <v>       0.25000000       0.75000000       0.75000000 </v>
    <v>       0.75000000       0.75000000       0.25000000 </v>
   </varray>
  </structure>
  <varray name="forces" >
   <v>      -0.24286901       0.00000000       0.00000000 </v>
   <v>      -0.24286901       0.00000000       0.00000000 </v>
   <v>       3.41460162       0.00000000       0.00000000 </v>
   <v>       0.44305748       0.00000000       0.00000000 </v>
   <v>      -0.73887169       0.43727184       0.43727184 </v>
   <v>      -0.94708885      -0.85011586       0.85011586 </v>
   <v>      -0.94708885       0.85011586      -0.85011586 </v>
   <v>      -0.73887169      -0.43727184      -0.43727184 </v>
  </varray>
  <varray name="stress" >
   <v>      -0.38703740       0.00000000       0.00000000 </v>
   <v>       0.00000000      12.52362644     -25.93894358 </v>
   <v>       0.00000000     -25.93894358      12.52362644 </v>
  </varray>
  <energy>
   <i name="e_fr_energy">    -42.91231976 </i>
   <i name="e_wo_entrp">    -42.91113621 </i>
   <i name="e_0_energy">     -0.00236711 </i>
  </energy>
  <time name="totalsc">    3.45    3.74</time>
  <eigenvalues>
   <array>
    <dimension dim="1">band</dimension>
    <dimension dim="2">kpoint</dimension>
    <dimension dim="3">spin</dimension>
    <field>eigene</field>
    <field>occ</field>
    <set>
     <set comment="spin 1">
      <set comment="kpoint 1">
       <r>   -6.2348    1.0000 </r>
       <r>   -2.5468    1.0000 </r>
       <r>   -2.3667    1.0000 </r>
       <r>   -2.1339    1.0000 </r>
       <r>   -2.1295    1.0000 </r>
       <r>   -1.9399    1.0000 </r>
       <r>   -1.6954    1.0000 </r>
       <r>    2.6205    1.0000 </r>
       <r>    2.7990    1.0000 </r>
       <r>    2.8159    1.0000 </r>
       <r>    2.8243    1.0000 </r>
       <r>    2.8621    1.0000 </r>
       <r>    3.0133    1.0000 </r>
       <r>    5.3406    1.0000 </r>
       <r>    5.6048    0.9949 </r>
       <r>    5.8956    0.6949 </r>
       <r>    6.1293    0.1265 </r>
       <r>    6.1751    0.0712 </r>
       <r>    6.3878    0.0015 </r>
       <r>    6.4066    0.0010 </r>
       <r>    8.6602    0.0000 </r>
      </set>
      <set comment="kpoint 2">
       <r>   -6.1497    1.0000 </r>
       <r>   -3.2153    1.0000 </r>
       <r>   -2.3441    1.0000 </r>
       <r>   -2.1321    1.0000 </r>
       <r>   -2.1025    1.0000 </r>
       <r>   -1.9085    1.0000 </r>
       <r>   -0.8961    1.0000 </r>
       <r>    2.5306    1.0000 </r>
       <r>    2.5904    1.0000 </r>
       <r>    2.6311    1.0000 </r>
       <r>    2.6446    1.0000 </r>
       <r>    2.7696    1.0000 </r>
       <r>    2.9988    1.0000 </r>
       <r>    5.0695    1.0000 </r>
       <r>    5.1010    1.0000 </r>
       <r>    5.5645    0.9978 </r>
       <r>    6.1531    0.0949 </r>
       <r>    6.5685    0.0000 </r>
       <r>    6.7743    0.0000 </r>
       <r>    6.8099    0.0000 </r>
       <r>    6.8588    0.0000 </r>
      </set>
      <set comment="kpoint 3">
       <r>   -5.8984    1.0000 </r>
       <r>   -4.0673    1.0000 </r>
       <r>   -2.2910    1.0000 </r>
       <r>   -2.0722    1.0000 </r>
       <r>   -2.0384    1.0000 </r>
       <r>   -1.8335    1.0000 </r>
       <r>    0.2739    1.0000 </r>
       <r>    2.1750    1.0000 </r>
       <r>    2.1836    1.0000 </r>
       <r>    2.1861    1.0000 </r>
       <r>    2.2102    1.0000 </r>
       <r>    2.9616    1.0000 </r>
       <r>    3.2084    1.0000 </r>
       <r>    4.0159    1.0000 </r>
       <r>    4.5200    1.0000 </r>
       <r>    4.8957    1.0000 </r>
       <r>    6.2486    0.0235 </r>
       <r>    7.2163    0.0000 </r>
       <r>    7.6592    0.0000 </r>
       <r>    7.7363    0.0000 </r>
       <r>    7.9730    0.0000 </r>
      </set>
      <set comment="kpoint 4">
       <r>   -5.5155    1.0000 </r>
       <r>   -4.7632    1.0000 </r>
       <r>   -2.2459    1.0000 </r>
       <r>   -2.0190    1.0000 </r>
       <r>   -1.9834    1.0000 </r>
       <r>   -1.7680    1.0000 </r>
       <r>    1.5006    1.0000 </r>
       <r>    1.8710    1.0000 </r>
       <r>    1.8942    1.0000 </r>
       <r>    1.9328    1.0000 </r>
       <r>    1.9380    1.0000 </r>
       <r>    2.7926    1.0000 </r>
       <r>    3.2600    1.0000 </r>
       <r>    3.5330    1.0000 </r>
       <r>    4.0068    1.0000 </r>
       <r>    4.3096    1.0000 </r>
       <r>    6.4992    0.0001 </r>
       <r>    6.9706    0.0000 </r>
       <r>    8.3082    0.0000 </r>
       <r>    9.1346    0.0000 </r>
       <r>    9.2716    0.0000 </r>
      </set>
      <set comment="kpoint 5">
       <r>   -6.1473    1.0000 </r>
       <r>   -3.2315    1.0000 </r>
       <r>   -2.4108    1.0000 </r>
       <r>   -2.1319    1.0000 </r>
       <r>   -2.1059    1.0000 </r>
       <r>   -1.7554    1.0000 </r>
       <r>   -0.9669    1.0000 </r>
       <r>    2.3997    1.0000 </r>
       <r>    2.5318    1.0000 </r>
       <r>    2.6187    1.0000 </r>
       <r>    2.7069    1.0000 </r>
       <r>    2.9497    1.0000 </r>
       <r>    2.9834    1.0000 </r>
       <r>    4.9195    1.0000 </r>
       <r>    5.3276    1.0000 </r>
       <r>    5.5232    0.9992 </r>
       <r>    6.1586    0.0884 </r>
       <r>    6.4684    0.0002 </r>
       <r>    6.7038    0.0000 </r>
       <r>    6.8751    0.0000 </r>
       <r>    7.0702    0.0000 </r>
      </set>
      <set comment="kpoint 6">
       <r>   -6.0627    1.0000 </r>
       <r>   -3.2716    1.0000 </r>
       <r>   -3.0305    1.0000 </r>
       <r>   -2.2438    1.0000 </r>
       <r>   -1.9491    1.0000 </r>
       <r>   -1.1206    1.0000 </r>
       <r>   -0.8262    1.0000 </r>
       <r>    2.0307    1.0000 </r>
       <r>    2.4948    1.0000 </r>
       <r>    2.6154    1.0000 </r>
       <r>    2.7111    1.0000 </r>
       <r>    2.8594    1.0000 </r>
       <r>    3.0199    1.0000 </r>
       <r>    4.3501    1.0000 </r>
       <r>    4.9784    1.0000 </r>
       <r>    5.6227    0.9926 </r>
       <r>    6.4133    0.0008 </r>
       <r>    6.5635    0.0000 </r>
       <r>    6.8192    0.0000 </r>
       <r>    7.1476    0.0000 </r>
       <r>    7.2025    0.0000 </r>
      </set>
      <set comment="kpoint 7">
       <r>   -5.8133    1.0000 </r>
       <r>   -4.0045    1.0000 </r>
       <r>   -3.0123    1.0000 </r>
       <r>   -2.3530    1.0000 </r>
       <r>   -1.7424    1.0000 </r>
       <r>   -1.0998    1.0000 </r>
       <r>    0.1850    1.0000 </r>
       <r>    1.6137    1.0000 </r>
       <r>    2.1039    1.0000 </r>
       <r>    2.5051    1.0000 </r>
       <r>    2.7006    1.0000 </r>
       <r>    2.9106    1.0000 </r>
       <r>    3.0875    1.0000 </r>
       <r>    3.4516    1.0000 </r>
       <r>    4.3610    1.0000 </r>
       <r>    5.1516    1.0000 </r>
       <r>    6.7273    0.0000 </r>
       <r>    7.0862    0.0000 </r>
       <r>    7.6276    0.0000 </r>
       <r>    7.8366    0.0000 </r>
       <r>    8.1631    0.0000 </r>
      </set>
      <set comment="kpoint 8">
       <r>   -5.4340    1.0000 </r>
       <r>   -4.6878    1.0000 </r>
       <r>   -2.8610    1.0000 </r>
       <r>   -2.4744    1.0000 </r>
       <r>   -1.5113    1.0000 </r>
       <r>   -1.2350    1.0000 </r>
       <r>    1.2817    1.0000 </r>
       <r>    1.4822    1.0000 </r>
       <r>    1.6755    1.0000 </r>
       <r>    2.3226    1.0000 </r>
       <r>    2.4407    1.0000 </r>
       <r>    2.6355    1.0000 </r>
       <r>    3.1252    1.0000 </r>
       <r>    3.4741    1.0000 </r>
       <r>    3.8946    1.0000 </r>
       <r>    4.4247    1.0000 </r>
       <r>    6.9818    0.0000 </r>
       <r>    7.4400    0.0000 </r>
       <r>    8.3428    0.0000 </r>
       <r>    8.6348    0.0000 </r>
       <r>    9.2559    0.0000 </r>
      </set>
      <set comment="kpoint 9">
       <r>   -5.8858    1.0000 </r>
       <r>   -4.1075    1.0000 </r>
       <r>   -2.3433    1.0000 </r>
       <r>   -2.0723    1.0000 </r>
       <r>   -2.0417    1.0000 </r>
       <r>   -1.6900    1.0000 </r>
       <r>    0.2031    1.0000 </r>
       <r>    1.9846    1.0000 </r>
       <r>    2.1152    1.0000 </r>
       <r>    2.2043    1.0000 </r>
       <r>    2.3219    1.0000 </r>
       <r>    3.1689    1.0000 </r>
       <r>    3.1932    1.0000 </r>
       <r>    3.9512    1.0000 </r>
       <r>    4.7162    1.0000 </r>
       <r>    4.7926    1.0000 </r>
       <r>    6.2812    0.0133 </r>
       <r>    7.1789    0.0000 </r>
       <r>    7.4803    0.0000 </r>
       <r>    7.7073    0.0000 </r>
       <r>    8.1001    0.0000 </r>
      </set>
      <set comment="kpoint 10">
       <r>   -5.8031    1.0000 </r>
       <r>   -4.0468    1.0000 </r>
       <r>   -2.9790    1.0000 </r>
       <r>   -2.3803    1.0000 </r>
       <r>   -1.7210    1.0000 </r>
       <r>   -1.0383    1.0000 </r>
       <r>    0.1193    1.0000 </r>
       <r>    1.6074    1.0000 </r>
       <r>    2.0155    1.0000 </r>
       <r>    2.4680    1.0000 </r>
       <r>    2.7494    1.0000 </r>
       <r>    3.0029    1.0000 </r>
       <r>    3.1359    1.0000 </r>
       <r>    3.4255    1.0000 </r>
       <r>    4.3740    1.0000 </r>
       <r>    5.1760    1.0000 </r>
       <r>    6.7413    0.0000 </r>
       <r>    7.0347    0.0000 </r>
       <r>    7.7532    0.0000 </r>
       <r>    7.7762    0.0000 </r>
       <r>    8.1616    0.0000 </r>
      </set>
      <set comment="kpoint 11">
       <r>   -5.5598    1.0000 </r>
       <r>   -3.9385    1.0000 </r>
       <r>   -3.7031    1.0000 </r>
       <r>   -2.7137    1.0000 </r>
       <r>   -1.3833    1.0000 </r>
       <r>   -0.3141    1.0000 </r>
       <r>    0.0303    1.0000 </r>
       <r>    1.3363    1.0000 </r>
       <r>    2.0892    1.0000 </r>
       <r>    2.2427    1.0000 </r>
       <r>    2.5905    1.0000 </r>
       <r>    2.9971    1.0000 </r>
       <r>    3.1459    1.0000 </r>
       <r>    3.4162    1.0000 </r>
       <r>    3.7863    1.0000 </r>
       <r>    5.2876    1.0000 </r>
       <r>    6.9380    0.0000 </r>
       <r>    7.7365    0.0000 </r>
       <r>    8.0447    0.0000 </r>
       <r>    8.4805    0.0000 </r>
       <r>    8.6623    0.0000 </r>
      </set>
      <set comment="kpoint 12">
       <r>   -5.1925    1.0000 </r>
       <r>   -4.4674    1.0000 </r>
       <r>   -3.5793    1.0000 </r>
       <r>   -3.0498    1.0000 </r>
       <r>   -0.9959    1.0000 </r>
       <r>   -0.5752    1.0000 </r>
       <r>    0.7778    1.0000 </r>
       <r>    1.3753    1.0000 </r>
       <r>    1.6081    1.0000 </r>
       <r>    1.7167    1.0000 </r>
       <r>    2.5589    1.0000 </r>
       <r>    3.0258    1.0000 </r>
       <r>    3.2038    1.0000 </r>
       <r>    3.4692    1.0000 </r>
       <r>    3.9391    1.0000 </r>
       <r>    4.7558    1.0000 </r>
       <r>    7.6642    0.0000 </r>
       <r>    8.0747    0.0000 </r>
       <r>    8.5325    0.0000 </r>
       <r>    8.8955    0.0000 </r>
       <r>    9.0069    0.0000 </r>
      </set>
      <set comment="kpoint 13">
       <r>   -5.4543    1.0000 </r>
       <r>   -4.8560    1.0000 </r>
       <r>   -2.2818    1.0000 </r>
       <r>   -2.0211    1.0000 </r>
       <r>   -1.9864    1.0000 </r>
       <r>   -1.6383    1.0000 </r>
       <r>    1.3728    1.0000 </r>
       <r>    1.7172    1.0000 </r>
       <r>    1.8611    1.0000 </r>
       <r>    1.9245    1.0000 </r>
       <r>    2.0443    1.0000 </r>
       <r>    2.7430    1.0000 </r>
       <r>    3.5708    1.0000 </r>
       <r>    3.5959    1.0000 </r>
       <r>    4.0995    1.0000 </r>
       <r>    4.1378    1.0000 </r>
       <r>    6.5562    0.0000 </r>
       <r>    6.9737    0.0000 </r>
       <r>    8.1354    0.0000 </r>
       <r>    9.0462    0.0000 </r>
       <r>    9.1686    0.0000 </r>
      </set>
      <set comment="kpoint 14">
       <r>   -5.3753    1.0000 </r>
       <r>   -4.7828    1.0000 </r>
       <r>   -2.7761    1.0000 </r>
       <r>   -2.5584    1.0000 </r>
       <r>   -1.4641    1.0000 </r>
       <r>   -1.1937    1.0000 </r>
       <r>    1.1482    1.0000 </r>
       <r>    1.5352    1.0000 </r>
       <r>    1.5909    1.0000 </r>
       <r>    2.2893    1.0000 </r>
       <r>    2.4831    1.0000 </r>
       <r>    2.5857    1.0000 </r>
       <r>    3.2577    1.0000 </r>
       <r>    3.6597    1.0000 </r>
       <r>    3.8053    1.0000 </r>
       <r>    4.4190    1.0000 </r>
       <r>    7.0416    0.0000 </r>
       <r>    7.4356    0.0000 </r>
       <r>    8.2083    0.0000 </r>
       <r>    8.6573    0.0000 </r>
       <r>   10.4177    0.0000 </r>
      </set>
      <set comment="kpoint 15">
       <r>   -5.1444    1.0000 </r>
       <r>   -4.5711    1.0000 </r>
       <r>   -3.4773    1.0000 </r>
       <r>   -3.1044    1.0000 </r>
       <r>   -0.9776    1.0000 </r>
       <r>   -0.5439    1.0000 </r>
       <r>    0.7125    1.0000 </r>
       <r>    1.4015    1.0000 </r>
       <r>    1.4602    1.0000 </r>
       <r>    1.8471    1.0000 </r>
       <r>    2.5526    1.0000 </r>
       <r>    2.9595    1.0000 </r>
       <r>    3.3083    1.0000 </r>
       <r>    3.4715    1.0000 </r>
       <r>    3.9461    1.0000 </r>
       <r>    4.7641    1.0000 </r>
       <r>    7.6241    0.0000 </r>
       <r>    8.1319    0.0000 </r>
       <r>    8.5364    0.0000 </r>
       <r>    8.9292    0.0000 </r>
       <r>    9.0104    0.0000 </r>
      </set>
      <set comment="kpoint 16">
       <r>   -4.8048    1.0000 </r>
       <r>   -4.2802    1.0000 </r>
       <r>   -4.0553    1.0000 </r>
       <r>   -3.5958    1.0000 </r>
       <r>   -0.4660    1.0000 </r>
       <r>   -0.0422    1.0000 </r>
       <r>    0.3209    1.0000 </r>
       <r>    0.8692    1.0000 </r>
       <r>    1.5635    1.0000 </r>
       <r>    1.9357    1.0000 </r>
       <r>    2.0436    1.0000 </r>
       <r>    2.4590    1.0000 </r>
       <r>    3.9170    1.0000 </r>
       <r>    4.0737    1.0000 </r>
       <r>    4.2192    1.0000 </r>
       <r>    4.7375    1.0000 </r>
       <r>    7.6318    0.0000 </r>
       <r>    8.2893    0.0000 </r>
       <r>    8.3454    0.0000 </r>
       <r>    8.4811    0.0000 </r>
       <r>    9.6720    0.0000 </r>
      </set>
      <set comment="kpoint 17">
       <r>   -6.0632    1.0000 </r>
       <r>   -3.2198    1.0000 </r>
       <r>   -3.0551    1.0000 </r>
       <r>   -2.4003    1.0000 </r>
       <r>   -1.7088    1.0000 </r>
       <r>   -1.1490    1.0000 </r>
       <r>   -0.9693    1.0000 </r>
       <r>    2.0721    1.0000 </r>
       <r>    2.6340    1.0000 </r>
       <r>    2.6486    1.0000 </r>
       <r>    2.6927    1.0000 </r>
       <r>    2.8282    1.0000 </r>
       <r>    2.9618    1.0000 </r>
       <r>    4.6411    1.0000 </r>
       <r>    4.9835    1.0000 </r>
       <r>    5.2655    1.0000 </r>
       <r>    6.3255    0.0057 </r>
       <r>    6.5116    0.0001 </r>
       <r>    6.7505    0.0000 </r>
       <r>    7.0064    0.0000 </r>
       <r>    8.5546    0.0000 </r>
      </set>
      <set comment="kpoint 18">
       <r>   -5.9794    1.0000 </r>
       <r>   -3.2165    1.0000 </r>
       <r>   -3.1831    1.0000 </r>
       <r>   -2.8428    1.0000 </r>
       <r>   -1.1900    1.0000 </r>
       <r>   -1.1741    1.0000 </r>
       <r>   -0.8166    1.0000 </r>
       <r>    2.1239    1.0000 </r>
       <r>    2.1824    1.0000 </r>
       <r>    2.3637    1.0000 </r>
       <r>    2.8517    1.0000 </r>
       <r>    3.0238    1.0000 </r>
       <r>    3.1354    1.0000 </r>
       <r>    3.8757    1.0000 </r>
       <r>    5.0443    1.0000 </r>
       <r>    5.4226    0.9999 </r>
       <r>    6.3927    0.0013 </r>
       <r>    6.4661    0.0002 </r>
       <r>    6.7328    0.0000 </r>
       <r>    7.6818    0.0000 </r>
       <r>    8.0436    0.0000 </r>
      </set>
      <set comment="kpoint 19">
       <r>   -5.7326    1.0000 </r>
       <r>   -3.9550    1.0000 </r>
       <r>   -3.0928    1.0000 </r>
       <r>   -2.8049    1.0000 </r>
       <r>   -1.2465    1.0000 </r>
       <r>   -1.2072    1.0000 </r>
       <r>    0.0745    1.0000 </r>
       <r>    1.8133    1.0000 </r>
       <r>    1.9139    1.0000 </r>
       <r>    2.5586    1.0000 </r>
       <r>    2.9223    1.0000 </r>
       <r>    2.9582    1.0000 </r>
       <r>    3.0533    1.0000 </r>
       <r>    3.1063    1.0000 </r>
       <r>    4.5618    1.0000 </r>
       <r>    5.0925    1.0000 </r>
       <r>    6.6807    0.0000 </r>
       <r>    7.0707    0.0000 </r>
       <r>    7.3521    0.0000 </r>
       <r>    7.9982    0.0000 </r>
       <r>    8.4618    0.0000 </r>
      </set>
      <set comment="kpoint 20">
       <r>   -5.3583    1.0000 </r>
       <r>   -4.6211    1.0000 </r>
       <r>   -3.0104    1.0000 </r>
       <r>   -2.6978    1.0000 </r>
       <r>   -1.3241    1.0000 </r>
       <r>   -1.3235    1.0000 </r>
       <r>    1.0204    1.0000 </r>
       <r>    1.6538    1.0000 </r>
       <r>    1.8148    1.0000 </r>
       <r>    1.9630    1.0000 </r>
       <r>    2.7153    1.0000 </r>
       <r>    2.7694    1.0000 </r>
       <r>    3.3716    1.0000 </r>
       <r>    3.3716    1.0000 </r>
       <r>    4.0932    1.0000 </r>
       <r>    4.2536    1.0000 </r>
       <r>    7.0418    0.0000 </r>
       <r>    7.6178    0.0000 </r>
       <r>    8.3239    0.0000 </r>
       <r>    8.5436    0.0000 </r>
       <r>    9.1138    0.0000 </r>
      </set>
      <set comment="kpoint 21">
       <r>   -5.8067    1.0000 </r>
       <r>   -4.0220    1.0000 </r>
       <r>   -2.9437    1.0000 </r>
       <r>   -2.5256    1.0000 </r>
       <r>   -1.4955    1.0000 </r>
       <r>   -1.1852    1.0000 </r>
       <r>    0.0242    1.0000 </r>
       <r>    1.6473    1.0000 </r>
       <r>    2.1130    1.0000 </r>
       <r>    2.5443    1.0000 </r>
       <r>    2.7137    1.0000 </r>
       <r>    2.8776    1.0000 </r>
       <r>    3.2370    1.0000 </r>
       <r>    3.6711    1.0000 </r>
       <r>    4.3502    1.0000 </r>
       <r>    4.8679    1.0000 </r>
       <r>    6.7348    0.0000 </r>
       <r>    6.9187    0.0000 </r>
       <r>    7.5406    0.0000 </r>
       <r>    7.9198    0.0000 </r>
       <r>    8.7775    0.0000 </r>
      </set>
      <set comment="kpoint 22">
       <r>   -5.7252    1.0000 </r>
       <r>   -3.9649    1.0000 </r>
       <r>   -3.0896    1.0000 </r>
       <r>   -2.8544    1.0000 </r>
       <r>   -1.2807    1.0000 </r>
       <r>   -0.9864    1.0000 </r>
       <r>   -0.1014    1.0000 </r>
       <r>    1.7618    1.0000 </r>
       <r>    1.8976    1.0000 </r>
       <r>    2.6205    1.0000 </r>
       <r>    2.7999    1.0000 </r>
       <r>    2.9834    1.0000 </r>
       <r>    3.0604    1.0000 </r>
       <r>    3.3464    1.0000 </r>
       <r>    4.6566    1.0000 </r>
       <r>    4.9208    1.0000 </r>
       <r>    6.7658    0.0000 </r>
       <r>    6.9915    0.0000 </r>
       <r>    7.2441    0.0000 </r>
       <r>    7.9900    0.0000 </r>
       <r>    8.3044    0.0000 </r>
      </set>
      <set comment="kpoint 23">
       <r>   -5.4859    1.0000 </r>
       <r>   -3.8805    1.0000 </r>
       <r>   -3.6845    1.0000 </r>
       <r>   -2.9526    1.0000 </r>
       <r>   -1.3134    1.0000 </r>
       <r>   -0.5417    1.0000 </r>
       <r>   -0.1880    1.0000 </r>
       <r>    1.6911    1.0000 </r>
       <r>    1.9564    1.0000 </r>
       <r>    2.3260    1.0000 </r>
       <r>    2.5508    1.0000 </r>
       <r>    3.1136    1.0000 </r>
       <r>    3.2696    1.0000 </r>
       <r>    3.4834    1.0000 </r>
       <r>    4.1834    1.0000 </r>
       <r>    5.1945    1.0000 </r>
       <r>    6.9961    0.0000 </r>
       <r>    7.2781    0.0000 </r>
       <r>    7.5474    0.0000 </r>
       <r>    7.9663    0.0000 </r>
       <r>    8.8367    0.0000 </r>
      </set>
      <set comment="kpoint 24">
       <r>   -5.1266    1.0000 </r>
       <r>   -4.4163    1.0000 </r>
       <r>   -3.5583    1.0000 </r>
       <r>   -3.0975    1.0000 </r>
       <r>   -1.2175    1.0000 </r>
       <r>   -0.8657    1.0000 </r>
       <r>    0.4511    1.0000 </r>
       <r>    1.2260    1.0000 </r>
       <r>    1.7929    1.0000 </r>
       <r>    2.1790    1.0000 </r>
       <r>    2.9062    1.0000 </r>
       <r>    3.2760    1.0000 </r>
       <r>    3.4245    1.0000 </r>
       <r>    3.5610    1.0000 </r>
       <r>    3.9234    1.0000 </r>
       <r>    4.6721    1.0000 </r>
       <r>    7.6046    0.0000 </r>
       <r>    7.7891    0.0000 </r>
       <r>    8.2187    0.0000 </r>
       <r>    8.6425    0.0000 </r>
       <r>   10.3717    0.0000 </r>
      </set>
      <set comment="kpoint 25">
       <r>   -5.3824    1.0000 </r>
       <r>   -4.7661    1.0000 </r>
       <r>   -2.7270    1.0000 </r>
       <r>   -2.6463    1.0000 </r>
       <r>   -1.3965    1.0000 </r>
       <r>   -1.2389    1.0000 </r>
       <r>    1.0684    1.0000 </r>
       <r>    1.4900    1.0000 </r>
       <r>    1.6710    1.0000 </r>
       <r>    2.3909    1.0000 </r>
       <r>    2.5116    1.0000 </r>
       <r>    2.5979    1.0000 </r>
       <r>    3.2734    1.0000 </r>
       <r>    3.7066    1.0000 </r>
       <r>    3.8641    1.0000 </r>
       <r>    4.1858    1.0000 </r>
       <r>    7.0123    0.0000 </r>
       <r>    7.4974    0.0000 </r>
       <r>    8.1473    0.0000 </r>
       <r>    9.3152    0.0000 </r>
       <r>    9.4438    0.0000 </r>
      </set>
      <set comment="kpoint 26">
       <r>   -5.3054    1.0000 </r>
       <r>   -4.6946    1.0000 </r>
       <r>   -2.9803    1.0000 </r>
       <r>   -2.7961    1.0000 </r>
       <r>   -1.3630    1.0000 </r>
       <r>   -1.0492    1.0000 </r>
       <r>    0.8184    1.0000 </r>
       <r>    1.5839    1.0000 </r>
       <r>    1.6559    1.0000 </r>
       <r>    2.1124    1.0000 </r>
       <r>    2.6371    1.0000 </r>
       <r>    2.8128    1.0000 </r>
       <r>    3.4164    1.0000 </r>
       <r>    3.6969    1.0000 </r>
       <r>    3.9406    1.0000 </r>
       <r>    4.2559    1.0000 </r>
       <r>    7.1889    0.0000 </r>
       <r>    7.6396    0.0000 </r>
       <r>    8.1767    0.0000 </r>
       <r>    8.4486    0.0000 </r>
       <r>   10.3506    0.0000 </r>
      </set>
      <set comment="kpoint 27">
       <r>   -5.0812    1.0000 </r>
       <r>   -4.4891    1.0000 </r>
       <r>   -3.5241    1.0000 </r>
       <r>   -3.1509    1.0000 </r>
       <r>   -1.1976    1.0000 </r>
       <r>   -0.6639    1.0000 </r>
       <r>    0.2855    1.0000 </r>
       <r>    1.2133    1.0000 </r>
       <r>    1.7795    1.0000 </r>
       <r>    2.0136    1.0000 </r>
       <r>    3.0242    1.0000 </r>
       <r>    3.2026    1.0000 </r>
       <r>    3.5047    1.0000 </r>
       <r>    3.6469    1.0000 </r>
       <r>    3.8762    1.0000 </r>
       <r>    4.7333    1.0000 </r>
       <r>    7.6176    0.0000 </r>
       <r>    7.9258    0.0000 </r>
       <r>    8.1244    0.0000 </r>
       <r>    8.4898    0.0000 </r>
       <r>    9.0293    0.0000 </r>
      </set>
      <set comment="kpoint 28">
       <r>   -4.7549    1.0000 </r>
       <r>   -4.2184    1.0000 </r>
       <r>   -4.0318    1.0000 </r>
       <r>   -3.5606    1.0000 </r>
       <r>   -0.8806    1.0000 </r>
       <r>   -0.3816    1.0000 </r>
       <r>   -0.0673    1.0000 </r>
       <r>    0.5375    1.0000 </r>
       <r>    2.0633    1.0000 </r>
       <r>    2.3501    1.0000 </r>
       <r>    2.6240    1.0000 </r>
       <r>    2.9595    1.0000 </r>
       <r>    3.9430    1.0000 </r>
       <r>    4.1008    1.0000 </r>
       <r>    4.2098    1.0000 </r>
       <r>    4.7492    1.0000 </r>
       <r>    7.6788    0.0000 </r>
       <r>    8.1561    0.0000 </r>
       <r>    8.3500    0.0000 </r>
       <r>    8.4476    0.0000 </r>
       <r>    8.7877    0.0000 </r>
      </set>
      <set comment="kpoint 29">
       <r>   -5.3631    1.0000 </r>
       <r>   -4.7954    1.0000 </r>
       <r>   -2.8721    1.0000 </r>
       <r>   -2.4193    1.0000 </r>
       <r>   -1.6456    1.0000 </r>
       <r>   -1.0386    1.0000 </r>
       <r>    1.2983    1.0000 </r>
       <r>    1.3678    1.0000 </r>
       <r>    1.7602    1.0000 </r>
       <r>    2.1735    1.0000 </r>
       <r>    2.3130    1.0000 </r>
       <r>    2.6873    1.0000 </r>
       <r>    3.2146    1.0000 </r>
       <r>    3.5510    1.0000 </r>
       <r>    3.7915    1.0000 </r>
       <r>    4.5956    1.0000 </r>
       <r>    7.0908    0.0000 </r>
       <r>    7.4165    0.0000 </r>
       <r>    8.4269    0.0000 </r>
       <r>    8.5108    0.0000 </r>
       <r>    9.4136    0.0000 </r>
      </set>
      <set comment="kpoint 30">
       <r>   -5.2850    1.0000 </r>
       <r>   -4.7258    1.0000 </r>
       <r>   -2.9790    1.0000 </r>
       <r>   -2.8057    1.0000 </r>
       <r>   -1.3463    1.0000 </r>
       <r>   -1.0250    1.0000 </r>
       <r>    1.0444    1.0000 </r>
       <r>    1.4632    1.0000 </r>
       <r>    1.6560    1.0000 </r>
       <r>    1.8658    1.0000 </r>
       <r>    2.6611    1.0000 </r>
       <r>    2.8549    1.0000 </r>
       <r>    3.1623    1.0000 </r>
       <r>    3.7018    1.0000 </r>
       <r>    4.1238    1.0000 </r>
       <r>    4.3749    1.0000 </r>
       <r>    7.2133    0.0000 </r>
       <r>    7.6578    0.0000 </r>
       <r>    8.3452    0.0000 </r>
       <r>    8.6061    0.0000 </r>
       <r>    9.0404    0.0000 </r>
      </set>
      <set comment="kpoint 31">
       <r>   -5.0574    1.0000 </r>
       <r>   -4.5261    1.0000 </r>
       <r>   -3.4411    1.0000 </r>
       <r>   -3.2695    1.0000 </r>
       <r>   -0.9542    1.0000 </r>
       <r>   -0.8408    1.0000 </r>
       <r>    0.4919    1.0000 </r>
       <r>    1.0220    1.0000 </r>
       <r>    1.6763    1.0000 </r>
       <r>    2.0049    1.0000 </r>
       <r>    2.7583    1.0000 </r>
       <r>    3.3157    1.0000 </r>
       <r>    3.4869    1.0000 </r>
       <r>    3.7929    1.0000 </r>
       <r>    4.0626    1.0000 </r>
       <r>    4.6366    1.0000 </r>
       <r>    7.6693    0.0000 </r>
       <r>    7.8787    0.0000 </r>
       <r>    8.2820    0.0000 </r>
       <r>    8.7323    0.0000 </r>
       <r>    8.8992    0.0000 </r>
      </set>
      <set comment="kpoint 32">
       <r>   -4.7256    1.0000 </r>
       <r>   -4.2510    1.0000 </r>
       <r>   -4.0000    1.0000 </r>
       <r>   -3.6340    1.0000 </r>
       <r>   -0.6535    1.0000 </r>
       <r>   -0.3994    1.0000 </r>
       <r>   -0.0425    1.0000 </r>
       <r>    0.3808    1.0000 </r>
       <r>    1.8854    1.0000 </r>
       <r>    2.3590    1.0000 </r>
       <r>    2.5149    1.0000 </r>
       <r>    3.0889    1.0000 </r>
       <r>    3.9877    1.0000 </r>
       <r>    4.1336    1.0000 </r>
       <r>    4.2938    1.0000 </r>
       <r>    4.7109    1.0000 </r>
       <r>    7.6988    0.0000 </r>
       <r>    8.1893    0.0000 </r>
       <r>    8.2365    0.0000 </r>
       <r>    8.4362    0.0000 </r>
       <r>    9.1800    0.0000 </r>
      </set>
      <set comment="kpoint 33">
       <r>   -5.7948    1.0000 </r>
       <r>   -4.0679    1.0000 </r>
       <r>   -3.0387    1.0000 </r>
       <r>   -2.2019    1.0000 </r>
       <r>   -1.9056    1.0000 </r>
       <r>   -0.9320    1.0000 </r>
       <r>    0.2115    1.0000 </r>
       <r>    1.4640    1.0000 </r>
       <r>    2.1171    1.0000 </r>
       <r>    2.3844    1.0000 </r>
       <r>    2.8330    1.0000 </r>
       <r>    2.9559    1.0000 </r>
       <r>    3.0635    1.0000 </r>
       <r>    3.2273    1.0000 </r>
       <r>    4.4150    1.0000 </r>
       <r>    5.3923    1.0000 </r>
       <r>    6.8046    0.0000 </r>
       <r>    7.2530    0.0000 </r>
       <r>    7.5212    0.0000 </r>
       <r>    7.8910    0.0000 </r>
       <r>    8.0188    0.0000 </r>
      </set>
      <set comment="kpoint 34">
       <r>   -5.7127    1.0000 </r>
       <r>   -4.0144    1.0000 </r>
       <r>   -3.0679    1.0000 </r>
       <r>   -2.8872    1.0000 </r>
       <r>   -1.2517    1.0000 </r>
       <r>   -0.9268    1.0000 </r>
       <r>    0.0911    1.0000 </r>
       <r>    1.6179    1.0000 </r>
       <r>    1.7636    1.0000 </r>
       <r>    2.4454    1.0000 </r>
       <r>    2.6982    1.0000 </r>
       <r>    2.9595    1.0000 </r>
       <r>    3.0927    1.0000 </r>
       <r>    3.3389    1.0000 </r>
       <r>    4.7136    1.0000 </r>
       <r>    5.1877    1.0000 </r>
       <r>    6.8124    0.0000 </r>
       <r>    7.1861    0.0000 </r>
       <r>    7.3722    0.0000 </r>
       <r>    8.1152    0.0000 </r>
       <r>    8.3186    0.0000 </r>
      </set>
      <set comment="kpoint 35">
       <r>   -5.4714    1.0000 </r>
       <r>   -3.9134    1.0000 </r>
       <r>   -3.6557    1.0000 </r>
       <r>   -3.0782    1.0000 </r>
       <r>   -1.0526    1.0000 </r>
       <r>   -0.4904    1.0000 </r>
       <r>   -0.1505    1.0000 </r>
       <r>    1.5275    1.0000 </r>
       <r>    1.7887    1.0000 </r>
       <r>    2.1384    1.0000 </r>
       <r>    2.2957    1.0000 </r>
       <r>    3.2828    1.0000 </r>
       <r>    3.4421    1.0000 </r>
       <r>    3.4994    1.0000 </r>
       <r>    4.3866    1.0000 </r>
       <r>    5.1463    1.0000 </r>
       <r>    7.0376    0.0000 </r>
       <r>    7.4481    0.0000 </r>
       <r>    7.6317    0.0000 </r>
       <r>    8.0720    0.0000 </r>
       <r>    8.9894    0.0000 </r>
      </set>
      <set comment="kpoint 36">
       <r>   -5.1083    1.0000 </r>
       <r>   -4.3898    1.0000 </r>
       <r>   -3.6305    1.0000 </r>
       <r>   -3.1989    1.0000 </r>
       <r>   -0.9540    1.0000 </r>
       <r>   -0.6594    1.0000 </r>
       <r>    0.3207    1.0000 </r>
       <r>    1.0940    1.0000 </r>
       <r>    1.5691    1.0000 </r>
       <r>    1.9171    1.0000 </r>
       <r>    2.9034    1.0000 </r>
       <r>    3.3828    1.0000 </r>
       <r>    3.5403    1.0000 </r>
       <r>    3.6043    1.0000 </r>
       <r>    4.0423    1.0000 </r>
       <r>    4.7033    1.0000 </r>
       <r>    7.7480    0.0000 </r>
       <r>    7.9187    0.0000 </r>
       <r>    8.2775    0.0000 </r>
       <r>    8.6182    0.0000 </r>
       <r>    9.0458    0.0000 </r>
      </set>
      <set comment="kpoint 37">
       <r>   -6.0575    1.0000 </r>
       <r>   -3.3292    1.0000 </r>
       <r>   -3.0287    1.0000 </r>
       <r>   -2.1339    1.0000 </r>
       <r>   -2.0462    1.0000 </r>
       <r>   -0.9607    1.0000 </r>
       <r>   -0.8872    1.0000 </r>
       <r>    1.8641    1.0000 </r>
       <r>    2.5795    1.0000 </r>
       <r>    2.5829    1.0000 </r>
       <r>    2.7381    1.0000 </r>
       <r>    2.8152    1.0000 </r>
       <r>    3.0722    1.0000 </r>
       <r>    4.1303    1.0000 </r>
       <r>    5.0355    1.0000 </r>
       <r>    5.8684    0.7587 </r>
       <r>    6.5988    0.0000 </r>
       <r>    6.6745    0.0000 </r>
       <r>    6.7134    0.0000 </r>
       <r>    7.0359    0.0000 </r>
       <r>    7.3247    0.0000 </r>
      </set>
      <set comment="kpoint 38">
       <r>   -5.9735    1.0000 </r>
       <r>   -3.3480    1.0000 </r>
       <r>   -2.9871    1.0000 </r>
       <r>   -2.9785    1.0000 </r>
       <r>   -1.2477    1.0000 </r>
       <r>   -0.9152    1.0000 </r>
       <r>   -0.8179    1.0000 </r>
       <r>    1.9548    1.0000 </r>
       <r>    2.1431    1.0000 </r>
       <r>    2.1455    1.0000 </r>
       <r>    3.0399    1.0000 </r>
       <r>    3.0432    1.0000 </r>
       <r>    3.1814    1.0000 </r>
       <r>    3.6162    1.0000 </r>
       <r>    5.2070    1.0000 </r>
       <r>    5.5580    0.9981 </r>
       <r>    6.4815    0.0001 </r>
       <r>    6.6729    0.0000 </r>
       <r>    6.7648    0.0000 </r>
       <r>    7.6880    0.0000 </r>
       <r>    7.8158    0.0000 </r>
      </set>
      <set comment="kpoint 39">
       <r>   -5.7257    1.0000 </r>
       <r>   -3.9383    1.0000 </r>
       <r>   -3.1572    1.0000 </r>
       <r>   -2.8835    1.0000 </r>
       <r>   -1.1290    1.0000 </r>
       <r>   -1.0008    1.0000 </r>
       <r>    0.0277    1.0000 </r>
       <r>    1.6603    1.0000 </r>
       <r>    1.7596    1.0000 </r>
       <r>    2.3433    1.0000 </r>
       <r>    2.8182    1.0000 </r>
       <r>    3.0105    1.0000 </r>
       <r>    3.0652    1.0000 </r>
       <r>    3.3503    1.0000 </r>
       <r>    4.8358    1.0000 </r>
       <r>    4.9582    1.0000 </r>
       <r>    6.9483    0.0000 </r>
       <r>    7.1058    0.0000 </r>
       <r>    7.2931    0.0000 </r>
       <r>    7.9726    0.0000 </r>
       <r>    8.3285    0.0000 </r>
      </set>
      <set comment="kpoint 40">
       <r>   -5.3497    1.0000 </r>
       <r>   -4.6085    1.0000 </r>
       <r>   -3.1001    1.0000 </r>
       <r>   -2.7867    1.0000 </r>
       <r>   -1.1647    1.0000 </r>
       <r>   -1.0971    1.0000 </r>
       <r>    0.9455    1.0000 </r>
       <r>    1.4599    1.0000 </r>
       <r>    1.6053    1.0000 </r>
       <r>    1.8539    1.0000 </r>
       <r>    2.8076    1.0000 </r>
       <r>    2.9094    1.0000 </r>
       <r>    3.1265    1.0000 </r>
       <r>    3.6529    1.0000 </r>
       <r>    4.0139    1.0000 </r>
       <r>    4.4156    1.0000 </r>
       <r>    7.2667    0.0000 </r>
       <r>    7.7366    0.0000 </r>
       <r>    8.3385    0.0000 </r>
       <r>    8.5357    0.0000 </r>
       <r>    8.9740    0.0000 </r>
      </set>
      <set comment="kpoint 41">
       <r>   -5.5596    1.0000 </r>
       <r>   -3.9016    1.0000 </r>
       <r>   -3.6800    1.0000 </r>
       <r>   -2.8649    1.0000 </r>
       <r>   -1.1396    1.0000 </r>
       <r>   -0.3202    1.0000 </r>
       <r>   -0.2810    1.0000 </r>
       <r>    1.3496    1.0000 </r>
       <r>    2.1847    1.0000 </r>
       <r>    2.3499    1.0000 </r>
       <r>    2.7781    1.0000 </r>
       <r>    3.0145    1.0000 </r>
       <r>    3.1895    1.0000 </r>
       <r>    3.4437    1.0000 </r>
       <r>    3.7087    1.0000 </r>
       <r>    4.9969    1.0000 </r>
       <r>    6.7866    0.0000 </r>
       <r>    7.7814    0.0000 </r>
       <r>    7.9232    0.0000 </r>
       <r>    8.4388    0.0000 </r>
       <r>    8.6260    0.0000 </r>
      </set>
      <set comment="kpoint 42">
       <r>   -5.4815    1.0000 </r>
       <r>   -3.8612    1.0000 </r>
       <r>   -3.6408    1.0000 </r>
       <r>   -3.1095    1.0000 </r>
       <r>   -1.0166    1.0000 </r>
       <r>   -0.4984    1.0000 </r>
       <r>   -0.4828    1.0000 </r>
       <r>    1.6177    1.0000 </r>
       <r>    2.1091    1.0000 </r>
       <r>    2.3442    1.0000 </r>
       <r>    2.4100    1.0000 </r>
       <r>    3.1954    1.0000 </r>
       <r>    3.2999    1.0000 </r>
       <r>    3.5670    1.0000 </r>
       <r>    4.3496    1.0000 </r>
       <r>    4.8878    1.0000 </r>
       <r>    6.8750    0.0000 </r>
       <r>    7.3126    0.0000 </r>
       <r>    7.5660    0.0000 </r>
       <r>    7.9789    0.0000 </r>
       <r>    9.1246    0.0000 </r>
      </set>
      <set comment="kpoint 43">
       <r>   -5.2535    1.0000 </r>
       <r>   -3.7615    1.0000 </r>
       <r>   -3.7498    1.0000 </r>
       <r>   -3.4124    1.0000 </r>
       <r>   -1.0247    1.0000 </r>
       <r>   -0.8622    1.0000 </r>
       <r>   -0.5837    1.0000 </r>
       <r>    1.2212    1.0000 </r>
       <r>    2.4125    1.0000 </r>
       <r>    2.4194    1.0000 </r>
       <r>    2.7177    1.0000 </r>
       <r>    3.3828    1.0000 </r>
       <r>    3.6139    1.0000 </r>
       <r>    3.7356    1.0000 </r>
       <r>    4.6099    1.0000 </r>
       <r>    4.9428    1.0000 </r>
       <r>    7.0994    0.0000 </r>
       <r>    7.2096    0.0000 </r>
       <r>    7.4742    0.0000 </r>
       <r>    7.4993    0.0000 </r>
       <r>   10.9094    0.0000 </r>
      </set>
      <set comment="kpoint 44">
       <r>   -4.9173    1.0000 </r>
       <r>   -4.2488    1.0000 </r>
       <r>   -3.6697    1.0000 </r>
       <r>   -3.3238    1.0000 </r>
       <r>   -1.3200    1.0000 </r>
       <r>   -1.1339    1.0000 </r>
       <r>   -0.1713    1.0000 </r>
       <r>    0.5094    1.0000 </r>
       <r>    2.5111    1.0000 </r>
       <r>    2.8327    1.0000 </r>
       <r>    3.5535    1.0000 </r>
       <r>    3.5669    1.0000 </r>
       <r>    3.6665    1.0000 </r>
       <r>    3.7760    1.0000 </r>
       <r>    4.3009    1.0000 </r>
       <r>    4.5332    1.0000 </r>
       <r>    7.4645    0.0000 </r>
       <r>    7.7485    0.0000 </r>
       <r>    7.9089    0.0000 </r>
       <r>    8.1431    0.0000 </r>
       <r>    8.7289    0.0000 </r>
      </set>
      <set comment="kpoint 45">
       <r>   -5.1514    1.0000 </r>
       <r>   -4.5297    1.0000 </r>
       <r>   -3.4443    1.0000 </r>
       <r>   -3.2240    1.0000 </r>
       <r>   -0.7518    1.0000 </r>
       <r>   -0.7053    1.0000 </r>
       <r>    0.5497    1.0000 </r>
       <r>    1.3374    1.0000 </r>
       <r>    1.6915    1.0000 </r>
       <r>    1.9393    1.0000 </r>
       <r>    2.6404    1.0000 </r>
       <r>    3.0672    1.0000 </r>
       <r>    3.1921    1.0000 </r>
       <r>    3.2973    1.0000 </r>
       <r>    4.1373    1.0000 </r>
       <r>    4.5133    1.0000 </r>
       <r>    7.4923    0.0000 </r>
       <r>    8.1135    0.0000 </r>
       <r>    8.6119    0.0000 </r>
       <r>    8.8631    0.0000 </r>
       <r>    9.1631    0.0000 </r>
      </set>
      <set comment="kpoint 46">
       <r>   -5.0801    1.0000 </r>
       <r>   -4.4666    1.0000 </r>
       <r>   -3.4502    1.0000 </r>
       <r>   -3.3075    1.0000 </r>
       <r>   -0.9428    1.0000 </r>
       <r>   -0.8395    1.0000 </r>
       <r>    0.2230    1.0000 </r>
       <r>    1.2414    1.0000 </r>
       <r>    1.8234    1.0000 </r>
       <r>    2.0322    1.0000 </r>
       <r>    2.9613    1.0000 </r>
       <r>    3.2658    1.0000 </r>
       <r>    3.4193    1.0000 </r>
       <r>    3.6546    1.0000 </r>
       <r>    4.1475    1.0000 </r>
       <r>    4.4519    1.0000 </r>
       <r>    7.5523    0.0000 </r>
       <r>    7.8180    0.0000 </r>
       <r>    8.2070    0.0000 </r>
       <r>    8.6242    0.0000 </r>
       <r>    9.0584    0.0000 </r>
      </set>
      <set comment="kpoint 47">
       <r>   -4.8753    1.0000 </r>
       <r>   -4.2914    1.0000 </r>
       <r>   -3.6251    1.0000 </r>
       <r>   -3.4416    1.0000 </r>
       <r>   -1.2451    1.0000 </r>
       <r>   -0.9160    1.0000 </r>
       <r>   -0.3691    1.0000 </r>
       <r>    0.5055    1.0000 </r>
       <r>    2.5298    1.0000 </r>
       <r>    2.6093    1.0000 </r>
       <r>    3.4617    1.0000 </r>
       <r>    3.5031    1.0000 </r>
       <r>    3.8035    1.0000 </r>
       <r>    4.0589    1.0000 </r>
       <r>    4.2504    1.0000 </r>
       <r>    4.5388    1.0000 </r>
       <r>    7.5446    0.0000 </r>
       <r>    7.6450    0.0000 </r>
       <r>    7.9102    0.0000 </r>
       <r>    8.0565    0.0000 </r>
       <r>    8.9330    0.0000 </r>
      </set>
      <set comment="kpoint 48">
       <r>   -4.5895    1.0000 </r>
       <r>   -4.0844    1.0000 </r>
       <r>   -3.9635    1.0000 </r>
       <r>   -3.5726    1.0000 </r>
       <r>   -1.3098    1.0000 </r>
       <r>   -0.9285    1.0000 </r>
       <r>   -0.6694    1.0000 </r>
       <r>   -0.1287    1.0000 </r>
       <r>    3.0034    1.0000 </r>
       <r>    3.2310    1.0000 </r>
       <r>    3.5304    1.0000 </r>
       <r>    3.8162    1.0000 </r>
       <r>    4.0589    1.0000 </r>
       <r>    4.2023    1.0000 </r>
       <r>    4.2746    1.0000 </r>
       <r>    4.7342    1.0000 </r>
       <r>    7.5259    0.0000 </r>
       <r>    7.7124    0.0000 </r>
       <r>    7.9578    0.0000 </r>
       <r>    8.1592    0.0000 </r>
       <r>    8.6478    0.0000 </r>
      </set>
      <set comment="kpoint 49">
       <r>   -5.1104    1.0000 </r>
       <r>   -4.5937    1.0000 </r>
       <r>   -3.5680    1.0000 </r>
       <r>   -3.0288    1.0000 </r>
       <r>   -1.1553    1.0000 </r>
       <r>   -0.3243    1.0000 </r>
       <r>    0.9202    1.0000 </r>
       <r>    1.2156    1.0000 </r>
       <r>    1.5393    1.0000 </r>
       <r>    1.7506    1.0000 </r>
       <r>    2.5832    1.0000 </r>
       <r>    2.9824    1.0000 </r>
       <r>    3.1465    1.0000 </r>
       <r>    3.4904    1.0000 </r>
       <r>    3.7566    1.0000 </r>
       <r>    4.9759    1.0000 </r>
       <r>    7.8407    0.0000 </r>
       <r>    8.2178    0.0000 </r>
       <r>    8.4601    0.0000 </r>
       <r>    8.7601    0.0000 </r>
       <r>    9.1240    0.0000 </r>
      </set>
      <set comment="kpoint 50">
       <r>   -5.0367    1.0000 </r>
       <r>   -4.5348    1.0000 </r>
       <r>   -3.5690    1.0000 </r>
       <r>   -3.1372    1.0000 </r>
       <r>   -1.2358    1.0000 </r>
       <r>   -0.5585    1.0000 </r>
       <r>    0.5422    1.0000 </r>
       <r>    0.9547    1.0000 </r>
       <r>    1.7323    1.0000 </r>
       <r>    2.0278    1.0000 </r>
       <r>    2.8853    1.0000 </r>
       <r>    3.1994    1.0000 </r>
       <r>    3.5486    1.0000 </r>
       <r>    3.6206    1.0000 </r>
       <r>    3.8138    1.0000 </r>
       <r>    4.8913    1.0000 </r>
       <r>    7.8800    0.0000 </r>
       <r>    7.9026    0.0000 </r>
       <r>    8.1997    0.0000 </r>
       <r>    8.6499    0.0000 </r>
       <r>    8.8854    0.0000 </r>
      </set>
      <set comment="kpoint 51">
       <r>   -4.8243    1.0000 </r>
       <r>   -4.3725    1.0000 </r>
       <r>   -3.6035    1.0000 </r>
       <r>   -3.4626    1.0000 </r>
       <r>   -1.2329    1.0000 </r>
       <r>   -0.8968    1.0000 </r>
       <r>   -0.0966    1.0000 </r>
       <r>    0.2644    1.0000 </r>
       <r>    2.4290    1.0000 </r>
       <r>    2.5382    1.0000 </r>
       <r>    3.2177    1.0000 </r>
       <r>    3.7221    1.0000 </r>
       <r>    3.7974    1.0000 </r>
       <r>    4.0305    1.0000 </r>
       <r>    4.3023    1.0000 </r>
       <r>    4.6784    1.0000 </r>
       <r>    7.6659    0.0000 </r>
       <r>    7.7221    0.0000 </r>
       <r>    8.0167    0.0000 </r>
       <r>    8.1948    0.0000 </r>
       <r>    8.8203    0.0000 </r>
      </set>
      <set comment="kpoint 52">
       <r>   -4.5276    1.0000 </r>
       <r>   -4.1653    1.0000 </r>
       <r>   -3.8835    1.0000 </r>
       <r>   -3.7016    1.0000 </r>
       <r>   -1.0295    1.0000 </r>
       <r>   -0.9619    1.0000 </r>
       <r>   -0.6115    1.0000 </r>
       <r>   -0.3358    1.0000 </r>
       <r>    2.7473    1.0000 </r>
       <r>    3.2220    1.0000 </r>
       <r>    3.3724    1.0000 </r>
       <r>    3.9326    1.0000 </r>
       <r>    4.1364    1.0000 </r>
       <r>    4.2803    1.0000 </r>
       <r>    4.4334    1.0000 </r>
       <r>    4.7212    1.0000 </r>
       <r>    7.6187    0.0000 </r>
       <r>    7.7616    0.0000 </r>
       <r>    7.8739    0.0000 </r>
       <r>    8.0772    0.0000 </r>
       <r>    8.8898    0.0000 </r>
      </set>
      <set comment="kpoint 53">
       <r>   -5.5346    1.0000 </r>
       <r>   -4.0170    1.0000 </r>
       <r>   -3.7237    1.0000 </r>
       <r>   -2.5930    1.0000 </r>
       <r>   -1.5590    1.0000 </r>
       <r>    0.0146    1.0000 </r>
       <r>    0.0365    1.0000 </r>
       <r>    1.2211    1.0000 </r>
       <r>    2.1563    1.0000 </r>
       <r>    2.2544    1.0000 </r>
       <r>    2.3935    1.0000 </r>
       <r>    2.7806    1.0000 </r>
       <r>    3.1252    1.0000 </r>
       <r>    3.4663    1.0000 </r>
       <r>    3.7760    1.0000 </r>
       <r>    5.5338    0.9989 </r>
       <r>    7.1283    0.0000 </r>
       <r>    7.9042    0.0000 </r>
       <r>    7.9541    0.0000 </r>
       <r>    8.5038    0.0000 </r>
       <r>    8.7809    0.0000 </r>
      </set>
      <set comment="kpoint 54">
       <r>   -5.4551    1.0000 </r>
       <r>   -3.9845    1.0000 </r>
       <r>   -3.6785    1.0000 </r>
       <r>   -2.9441    1.0000 </r>
       <r>   -1.3221    1.0000 </r>
       <r>   -0.2203    1.0000 </r>
       <r>   -0.1432    1.0000 </r>
       <r>    1.4604    1.0000 </r>
       <r>    1.8874    1.0000 </r>
       <r>    2.2075    1.0000 </r>
       <r>    2.2350    1.0000 </r>
       <r>    3.1697    1.0000 </r>
       <r>    3.3336    1.0000 </r>
       <r>    3.5447    1.0000 </r>
       <r>    4.2344    1.0000 </r>
       <r>    5.3936    1.0000 </r>
       <r>    7.2208    0.0000 </r>
       <r>    7.3989    0.0000 </r>
       <r>    7.5781    0.0000 </r>
       <r>    8.0798    0.0000 </r>
       <r>    9.4358    0.0000 </r>
      </set>
      <set comment="kpoint 55">
       <r>   -5.2227    1.0000 </r>
       <r>   -3.9208    1.0000 </r>
       <r>   -3.5654    1.0000 </r>
       <r>   -3.5535    1.0000 </r>
       <r>   -0.9405    1.0000 </r>
       <r>   -0.6691    1.0000 </r>
       <r>   -0.4788    1.0000 </r>
       <r>    1.0076    1.0000 </r>
       <r>    2.1106    1.0000 </r>
       <r>    2.3961    1.0000 </r>
       <r>    2.3987    1.0000 </r>
       <r>    3.6344    1.0000 </r>
       <r>    3.6748    1.0000 </r>
       <r>    3.7775    1.0000 </r>
       <r>    4.6922    1.0000 </r>
       <r>    5.0503    1.0000 </r>
       <r>    7.2562    0.0000 </r>
       <r>    7.3815    0.0000 </r>
       <r>    7.4635    0.0000 </r>
       <r>    7.6432    0.0000 </r>
       <r>    9.0084    0.0000 </r>
      </set>
      <set comment="kpoint 56">
       <r>   -4.8782    1.0000 </r>
       <r>   -4.1947    1.0000 </r>
       <r>   -3.7834    1.0000 </r>
       <r>   -3.4591    1.0000 </r>
       <r>   -0.9914    1.0000 </r>
       <r>   -0.8577    1.0000 </r>
       <r>   -0.3591    1.0000 </r>
       <r>    0.3287    1.0000 </r>
       <r>    2.1640    1.0000 </r>
       <r>    2.5459    1.0000 </r>
       <r>    3.3463    1.0000 </r>
       <r>    3.7806    1.0000 </r>
       <r>    3.8957    1.0000 </r>
       <r>    3.9782    1.0000 </r>
       <r>    4.2947    1.0000 </r>
       <r>    4.6884    1.0000 </r>
       <r>    7.6690    0.0000 </r>
       <r>    7.8822    0.0000 </r>
       <r>    7.8833    0.0000 </r>
       <r>    8.0748    0.0000 </r>
       <r>    9.1267    0.0000 </r>
      </set>
      <set comment="kpoint 57">
       <r>   -4.7748    1.0000 </r>
       <r>   -4.2524    1.0000 </r>
       <r>   -4.0150    1.0000 </r>
       <r>   -3.7436    1.0000 </r>
       <r>   -0.2064    1.0000 </r>
       <r>   -0.0524    1.0000 </r>
       <r>   -0.0338    1.0000 </r>
       <r>    1.0475    1.0000 </r>
       <r>    1.6043    1.0000 </r>
       <r>    1.9501    1.0000 </r>
       <r>    2.1170    1.0000 </r>
       <r>    2.4698    1.0000 </r>
       <r>    3.7125    1.0000 </r>
       <r>    4.0060    1.0000 </r>
       <r>    4.4838    1.0000 </r>
       <r>    4.5246    1.0000 </r>
       <r>    7.4512    0.0000 </r>
       <r>    8.2559    0.0000 </r>
       <r>    8.4052    0.0000 </r>
       <r>    8.8260    0.0000 </r>
       <r>    9.4712    0.0000 </r>
      </set>
      <set comment="kpoint 58">
       <r>   -4.7156    1.0000 </r>
       <r>   -4.2109    1.0000 </r>
       <r>   -3.9652    1.0000 </r>
       <r>   -3.7408    1.0000 </r>
       <r>   -0.5378    1.0000 </r>
       <r>   -0.4082    1.0000 </r>
       <r>   -0.3494    1.0000 </r>
       <r>    0.5742    1.0000 </r>
       <r>    2.0887    1.0000 </r>
       <r>    2.4156    1.0000 </r>
       <r>    2.5340    1.0000 </r>
       <r>    3.0784    1.0000 </r>
       <r>    3.7487    1.0000 </r>
       <r>    4.0379    1.0000 </r>
       <r>    4.5202    1.0000 </r>
       <r>    4.5237    1.0000 </r>
       <r>    7.5010    0.0000 </r>
       <r>    8.1568    0.0000 </r>
       <r>    8.3785    0.0000 </r>
       <r>    8.6411    0.0000 </r>
       <r>    9.1033    0.0000 </r>
      </set>
      <set comment="kpoint 59">
       <r>   -4.5534    1.0000 </r>
       <r>   -4.1085    1.0000 </r>
       <r>   -3.8589    1.0000 </r>
       <r>   -3.7443    1.0000 </r>
       <r>   -1.0555    1.0000 </r>
       <r>   -0.9060    1.0000 </r>
       <r>   -0.8761    1.0000 </r>
       <r>   -0.1395    1.0000 </r>
       <r>    3.0693    1.0000 </r>
       <r>    3.3112    1.0000 </r>
       <r>    3.3113    1.0000 </r>
       <r>    3.8502    1.0000 </r>
       <r>    4.0348    1.0000 </r>
       <r>    4.1242    1.0000 </r>
       <r>    4.5019    1.0000 </r>
       <r>    4.6220    1.0000 </r>
       <r>    7.4642    0.0000 </r>
       <r>    7.7294    0.0000 </r>
       <r>    8.0061    0.0000 </r>
       <r>    8.0296    0.0000 </r>
       <r>    8.8611    0.0000 </r>
      </set>
      <set comment="kpoint 60">
       <r>   -4.3577    1.0000 </r>
       <r>   -4.0143    1.0000 </r>
       <r>   -3.9013    1.0000 </r>
       <r>   -3.6683    1.0000 </r>
       <r>   -1.4405    1.0000 </r>
       <r>   -1.2227    1.0000 </r>
       <r>   -1.0550    1.0000 </r>
       <r>   -0.6662    1.0000 </r>
       <r>    3.7826    1.0000 </r>
       <r>    3.9989    1.0000 </r>
       <r>    4.0116    1.0000 </r>
       <r>    4.1576    1.0000 </r>
       <r>    4.2870    1.0000 </r>
       <r>    4.4713    1.0000 </r>
       <r>    4.4839    1.0000 </r>
       <r>    4.7739    1.0000 </r>
       <r>    7.0577    0.0000 </r>
       <r>    7.3567    0.0000 </r>
       <r>    7.5820    0.0000 </r>
       <r>    8.8146    0.0000 </r>
       <r>    8.9217    0.0000 </r>
      </set>
      <set comment="kpoint 61">
       <r>   -4.7061    1.0000 </r>
       <r>   -4.3717    1.0000 </r>
       <r>   -4.0797    1.0000 </r>
       <r>   -3.6117    1.0000 </r>
       <r>   -0.6233    1.0000 </r>
       <r>    0.3267    1.0000 </r>
       <r>    0.4100    1.0000 </r>
       <r>    0.6502    1.0000 </r>
       <r>    1.5842    1.0000 </r>
       <r>    1.8885    1.0000 </r>
       <r>    2.1059    1.0000 </r>
       <r>    2.5279    1.0000 </r>
       <r>    3.6361    1.0000 </r>
       <r>    4.0480    1.0000 </r>
       <r>    4.1194    1.0000 </r>
       <r>    4.9424    1.0000 </r>
       <r>    7.7970    0.0000 </r>
       <r>    8.0547    0.0000 </r>
       <r>    8.4602    0.0000 </r>
       <r>    8.5976    0.0000 </r>
       <r>    9.5021    0.0000 </r>
      </set>
      <set comment="kpoint 62">
       <r>   -4.6429    1.0000 </r>
       <r>   -4.3354    1.0000 </r>
       <r>   -4.0335    1.0000 </r>
       <r>   -3.6068    1.0000 </r>
       <r>   -0.8948    1.0000 </r>
       <r>   -0.1056    1.0000 </r>
       <r>    0.0284    1.0000 </r>
       <r>    0.2525    1.0000 </r>
       <r>    2.0237    1.0000 </r>
       <r>    2.4345    1.0000 </r>
       <r>    2.5957    1.0000 </r>
       <r>    3.0203    1.0000 </r>
       <r>    3.6813    1.0000 </r>
       <r>    4.0860    1.0000 </r>
       <r>    4.1570    1.0000 </r>
       <r>    4.9408    1.0000 </r>
       <r>    7.8340    0.0000 </r>
       <r>    8.0594    0.0000 </r>
       <r>    8.4164    0.0000 </r>
       <r>    8.4569    0.0000 </r>
       <r>    9.1118    0.0000 </r>
      </set>
      <set comment="kpoint 63">
       <r>   -4.4689    1.0000 </r>
       <r>   -4.2441    1.0000 </r>
       <r>   -3.9178    1.0000 </r>
       <r>   -3.6358    1.0000 </r>
       <r>   -1.2756    1.0000 </r>
       <r>   -0.7332    1.0000 </r>
       <r>   -0.5517    1.0000 </r>
       <r>   -0.4027    1.0000 </r>
       <r>    2.9371    1.0000 </r>
       <r>    3.3556    1.0000 </r>
       <r>    3.3624    1.0000 </r>
       <r>    3.8488    1.0000 </r>
       <r>    3.9472    1.0000 </r>
       <r>    4.1806    1.0000 </r>
       <r>    4.2569    1.0000 </r>
       <r>    4.9314    1.0000 </r>
       <r>    7.5920    0.0000 </r>
       <r>    7.9178    0.0000 </r>
       <r>    7.9798    0.0000 </r>
       <r>    7.9964    0.0000 </r>
       <r>    8.6400    0.0000 </r>
      </set>
      <set comment="kpoint 64">
       <r>   -4.2724    1.0000 </r>
       <r>   -4.1330    1.0000 </r>
       <r>   -3.8091    1.0000 </r>
       <r>   -3.7613    1.0000 </r>
       <r>   -1.3716    1.0000 </r>
       <r>   -1.1278    1.0000 </r>
       <r>   -1.0052    1.0000 </r>
       <r>   -0.8351    1.0000 </r>
       <r>    3.5391    1.0000 </r>
       <r>    3.9480    1.0000 </r>
       <r>    4.0294    1.0000 </r>
       <r>    4.2920    1.0000 </r>
       <r>    4.3694    1.0000 </r>
       <r>    4.3963    1.0000 </r>
       <r>    4.4704    1.0000 </r>
       <r>    4.9411    1.0000 </r>
       <r>    7.1404    0.0000 </r>
       <r>    7.4298    0.0000 </r>
       <r>    7.4301    0.0000 </r>
       <r>    7.5579    0.0000 </r>
       <r>    8.7020    0.0000 </r>
      </set>
     </set>
    </set>
   </array>
  </eigenvalues>
  <separator name="orbital magnetization" >
   <v name="MAGDIPOLOUT">      0.00000000      0.00000000      0.00000000</v>
  </separator>
  <dos>
   <i name="efermi">      5.96764939 </i>
   <total>
    <array>
     <dimension dim="1">gridpoints</dimension>
     <dimension dim="2">spin</dimension>
     <field>energy</field>
     <field>total</field>
     <field>integrated</field>
     <set>
      <set comment="spin 1">
       <r>    -8.2348     0.0000     0.0000 </r>
       <r>    -8.1644     0.0000     0.0000 </r>
       <r>    -8.0939     0.0000     0.0000 </r>
       <r>    -8.0234     0.0000     0.0000 </r>
       <r>    -7.9529     0.0000     0.0000 </r>
       <r>    -7.8824     0.0000     0.0000 </r>
       <r>    -7.8120     0.0000     0.0000 </r>
       <r>    -7.7415     0.0000     0.0000 </r>
       <r>    -7.6710     0.0000     0.0000 </r>
       <r>    -7.6005     0.0000     0.0000 </r>
       <r>    -7.5300     0.0000     0.0000 </r>
       <r>    -7.4596     0.0000     0.0000 </r>
       <r>    -7.3891     0.0000     0.0000 </r>
       <r>    -7.3186     0.0000     0.0000 </r>
       <r>    -7.2481     0.0000     0.0000 </r>
       <r>    -7.1776     0.0000     0.0000 </r>
       <r>    -7.1071     0.0000     0.0000 </r>
       <r>    -7.0367     0.0000     0.0000 </r>
       <r>    -6.9662     0.0000     0.0000 </r>
       <r>    -6.8957     0.0000     0.0000 </r>
       <r>    -6.8252     0.0000     0.0000 </r>
       <r>    -6.7547     0.0000     0.0000 </r>
       <r>    -6.6843     0.0001     0.0000 </r>
       <r>    -6.6138     0.0005     0.0000 </r>
       <r>    -6.5433     0.0022     0.0002 </r>
       <r>    -6.4728     0.0083     0.0008 </r>
       <r>    -6.4023     0.0255     0.0026 </r>
       <r>    -6.3319     0.0644     0.0071 </r>
       <r>    -6.2614     0.1360     0.0167 </r>
       <r>    -6.1909     0.2418     0.0337 </r>
       <r>    -6.1204     0.3693     0.0598 </r>
       <r>    -6.0499     0.5006     0.0951 </r>
       <r>    -5.9795     0.6297     0.1394 </r>
       <r>    -5.9090     0.7634     0.1932 </r>
       <r>    -5.8385     0.8962     0.2564 </r>
       <r>    -5.7680     0.9985     0.3268 </r>
       <r>    -5.6975     1.0517     0.4009 </r>
       <r>    -5.6271     1.0882     0.4776 </r>
       <r>    -5.5566     1.1662     0.5598 </r>
       <r>    -5.4861     1.2992     0.6514 </r>
       <r>    -5.4156     1.4375     0.7527 </r>
       <r>    -5.3451     1.5291     0.8605 </r>
       <r>    -5.2746     1.5741     0.9714 </r>
       <r>    -5.2042     1.6011     1.0843 </r>
       <r>    -5.1337     1.6107     1.1978 </r>
       <r>    -5.0632     1.5790     1.3091 </r>
       <r>    -4.9927     1.5253     1.4166 </r>
       <r>    -4.9222     1.5323     1.5246 </r>
       <r>    -4.8518     1.6662     1.6420 </r>
       <r>    -4.7813     1.8953     1.7756 </r>
       <r>    -4.7108     2.1205     1.9250 </r>
       <r>    -4.6403     2.2692     2.0850 </r>
       <r>    -4.5698     2.3306     2.2492 </r>
       <r>    -4.4994     2.3205     2.4128 </r>
       <r>    -4.4289     2.2599     2.5721 </r>
       <r>    -4.3584     2.1879     2.7263 </r>
       <r>    -4.2879     2.1633     2.8788 </r>
       <r>    -4.2174     2.2419     3.0368 </r>
       <r>    -4.1470     2.4481     3.2093 </r>
       <r>    -4.0765     2.7402     3.4024 </r>
       <r>    -4.0060     2.9988     3.6138 </r>
       <r>    -3.9355     3.1044     3.8326 </r>
       <r>    -3.8650     3.0637     4.0485 </r>
       <r>    -3.7946     3.0259     4.2618 </r>
       <r>    -3.7241     3.1269     4.4822 </r>
       <r>    -3.6536     3.3262     4.7166 </r>
       <r>    -3.5831     3.4315     4.9585 </r>
       <r>    -3.5126     3.2882     5.1902 </r>
       <r>    -3.4421     2.9282     5.3966 </r>
       <r>    -3.3717     2.5422     5.5758 </r>
       <r>    -3.3012     2.3351     5.7404 </r>
       <r>    -3.2307     2.3980     5.9094 </r>
       <r>    -3.1602     2.6704     6.0976 </r>
       <r>    -3.0897     2.9842     6.3079 </r>
       <r>    -3.0193     3.1584     6.5305 </r>
       <r>    -2.9488     3.0940     6.7486 </r>
       <r>    -2.8783     2.8071     6.9465 </r>
       <r>    -2.8078     2.3833     7.1144 </r>
       <r>    -2.7373     1.9176     7.2496 </r>
       <r>    -2.6669     1.4963     7.3550 </r>
       <r>    -2.5964     1.1930     7.4391 </r>
       <r>    -2.5259     1.0435     7.5127 </r>
       <r>    -2.4554     1.0221     7.5847 </r>
       <r>    -2.3849     1.0583     7.6593 </r>
       <r>    -2.3145     1.0865     7.7359 </r>
       <r>    -2.2440     1.0856     7.8124 </r>
       <r>    -2.1735     1.0730     7.8880 </r>
       <r>    -2.1030     1.0638     7.9630 </r>
       <r>    -2.0325     1.0449     8.0367 </r>
       <r>    -1.9620     0.9971     8.1069 </r>
       <r>    -1.8916     0.9304     8.1725 </r>
       <r>    -1.8211     0.8805     8.2346 </r>
       <r>    -1.7506     0.8695     8.2958 </r>
       <r>    -1.6801     0.8941     8.3589 </r>
       <r>    -1.6096     0.9661     8.4269 </r>
       <r>    -1.5392     1.1459     8.5077 </r>
       <r>    -1.4687     1.5104     8.6142 </r>
       <r>    -1.3982     2.0786     8.7607 </r>
       <r>    -1.3277     2.7663     8.9556 </r>
       <r>    -1.2572     3.4226     9.1969 </r>
       <r>    -1.1868     3.9338     9.4741 </r>
       <r>    -1.1163     4.2940     9.7768 </r>
       <r>    -1.0458     4.5426    10.0969 </r>
       <r>    -0.9753     4.6405    10.4240 </r>
       <r>    -0.9048     4.4741    10.7393 </r>
       <r>    -0.8344     4.0140    11.0222 </r>
       <r>    -0.7639     3.4170    11.2631 </r>
       <r>    -0.6934     2.9181    11.4687 </r>
       <r>    -0.6229     2.6355    11.6545 </r>
       <r>    -0.5524     2.5125    11.8316 </r>
       <r>    -0.4820     2.4250    12.0025 </r>
       <r>    -0.4115     2.3000    12.1646 </r>
       <r>    -0.3410     2.1460    12.3159 </r>
       <r>    -0.2705     2.0219    12.4584 </r>
       <r>    -0.2000     1.9805    12.5979 </r>
       <r>    -0.1295     2.0120    12.7398 </r>
       <r>    -0.0591     2.0410    12.8836 </r>
       <r>     0.0114     1.9992    13.0245 </r>
       <r>     0.0819     1.8933    13.1579 </r>
       <r>     0.1524     1.7862    13.2838 </r>
       <r>     0.2229     1.7214    13.4052 </r>
       <r>     0.2933     1.6844    13.5239 </r>
       <r>     0.3638     1.6351    13.6391 </r>
       <r>     0.4343     1.5503    13.7484 </r>
       <r>     0.5048     1.4240    13.8488 </r>
       <r>     0.5753     1.2590    13.9375 </r>
       <r>     0.6457     1.0830    14.0138 </r>
       <r>     0.7162     0.9527    14.0810 </r>
       <r>     0.7867     0.9155    14.1455 </r>
       <r>     0.8572     0.9746    14.2142 </r>
       <r>     0.9277     1.0963    14.2915 </r>
       <r>     0.9981     1.2394    14.3788 </r>
       <r>     1.0686     1.3781    14.4759 </r>
       <r>     1.1391     1.5132    14.5826 </r>
       <r>     1.2096     1.6654    14.7000 </r>
       <r>     1.2801     1.8608    14.8311 </r>
       <r>     1.3505     2.1294    14.9812 </r>
       <r>     1.4210     2.5027    15.1576 </r>
       <r>     1.4915     2.9830    15.3678 </r>
       <r>     1.5620     3.5046    15.6148 </r>
       <r>     1.6325     3.9467    15.8930 </r>
       <r>     1.7030     4.2126    16.1899 </r>
       <r>     1.7734     4.3035    16.4932 </r>
       <r>     1.8439     4.3067    16.7968 </r>
       <r>     1.9144     4.3114    17.1006 </r>
       <r>     1.9849     4.3356    17.4062 </r>
       <r>     2.0554     4.3250    17.7110 </r>
       <r>     2.1258     4.2247    18.0088 </r>
       <r>     2.1963     4.0688    18.2956 </r>
       <r>     2.2668     3.9920    18.5769 </r>
       <r>     2.3373     4.1296    18.8680 </r>
       <r>     2.4078     4.4956    19.1848 </r>
       <r>     2.4782     4.9577    19.5343 </r>
       <r>     2.5487     5.3189    19.9091 </r>
       <r>     2.6192     5.4393    20.2925 </r>
       <r>     2.6897     5.3266    20.6679 </r>
       <r>     2.7602     5.1361    21.0299 </r>
       <r>     2.8306     5.0647    21.3869 </r>
       <r>     2.9011     5.2107    21.7541 </r>
       <r>     2.9716     5.5098    22.1425 </r>
       <r>     3.0421     5.8030    22.5515 </r>
       <r>     3.1126     5.9685    22.9722 </r>
       <r>     3.1830     5.9945    23.3946 </r>
       <r>     3.2535     5.9434    23.8135 </r>
       <r>     3.3240     5.8772    24.2278 </r>
       <r>     3.3945     5.8103    24.6373 </r>
       <r>     3.4650     5.7047    25.0394 </r>
       <r>     3.5355     5.5125    25.4279 </r>
       <r>     3.6059     5.2388    25.7971 </r>
       <r>     3.6764     4.9574    26.1465 </r>
       <r>     3.7469     4.7532    26.4815 </r>
       <r>     3.8174     4.6626    26.8102 </r>
       <r>     3.8879     4.6695    27.1393 </r>
       <r>     3.9583     4.7299    27.4726 </r>
       <r>     4.0288     4.7891    27.8102 </r>
       <r>     4.0993     4.7962    28.1482 </r>
       <r>     4.1698     4.7233    28.4811 </r>
       <r>     4.2403     4.5704    28.8032 </r>
       <r>     4.3107     4.3442    29.1094 </r>
       <r>     4.3812     4.0483    29.3948 </r>
       <r>     4.4517     3.7119    29.6564 </r>
       <r>     4.5222     3.4173    29.8972 </r>
       <r>     4.5927     3.2519    30.1264 </r>
       <r>     4.6631     3.2082    30.3525 </r>
       <r>     4.7336     3.1621    30.5754 </r>
       <r>     4.8041     2.9898    30.7861 </r>
       <r>     4.8746     2.6875    30.9756 </r>
       <r>     4.9451     2.3458    31.1409 </r>
       <r>     5.0155     2.0450    31.2850 </r>
       <r>     5.0860     1.8060    31.4123 </r>
       <r>     5.1565     1.6050    31.5254 </r>
       <r>     5.2270     1.4036    31.6243 </r>
       <r>     5.2975     1.1824    31.7077 </r>
       <r>     5.3680     0.9607    31.7754 </r>
       <r>     5.4384     0.7746    31.8300 </r>
       <r>     5.5089     0.6375    31.8749 </r>
       <r>     5.5794     0.5294    31.9122 </r>
       <r>     5.6499     0.4220    31.9420 </r>
       <r>     5.7204     0.3086    31.9637 </r>
       <r>     5.7908     0.2074    31.9783 </r>
       <r>     5.8613     0.1391    31.9882 </r>
       <r>     5.9318     0.1106    31.9959 </r>
       <r>     6.0023     0.1195    32.0044 </r>
       <r>     6.0728     0.1626    32.0158 </r>
       <r>     6.1432     0.2354    32.0324 </r>
       <r>     6.2137     0.3329    32.0559 </r>
       <r>     6.2842     0.4539    32.0879 </r>
       <r>     6.3547     0.5982    32.1300 </r>
       <r>     6.4252     0.7585    32.1835 </r>
       <r>     6.4956     0.9272    32.2488 </r>
       <r>     6.5661     1.1139    32.3274 </r>
       <r>     6.6366     1.3401    32.4218 </r>
       <r>     6.7071     1.6024    32.5347 </r>
       <r>     6.7776     1.8636    32.6661 </r>
       <r>     6.8480     2.0991    32.8140 </r>
       <r>     6.9185     2.3278    32.9781 </r>
       <r>     6.9890     2.5658    33.1589 </r>
       <r>     7.0595     2.7743    33.3545 </r>
       <r>     7.1300     2.8915    33.5583 </r>
       <r>     7.2005     2.9087    33.7633 </r>
       <r>     7.2709     2.9020    33.9678 </r>
       <r>     7.3414     3.0001    34.1793 </r>
       <r>     7.4119     3.3119    34.4127 </r>
       <r>     7.4824     3.8502    34.6841 </r>
       <r>     7.5529     4.4989    35.0011 </r>
       <r>     7.6233     5.0554    35.3575 </r>
       <r>     7.6938     5.3430    35.7340 </r>
       <r>     7.7643     5.3318    36.1098 </r>
       <r>     7.8348     5.1579    36.4734 </r>
       <r>     7.9053     5.0047    36.8261 </r>
       <r>     7.9757     4.9655    37.1761 </r>
       <r>     8.0462     5.0096    37.5291 </r>
       <r>     8.1167     5.0353    37.8840 </r>
       <r>     8.1872     4.9422    38.2324 </r>
       <r>     8.2577     4.6973    38.5634 </r>
       <r>     8.3281     4.3598    38.8707 </r>
       <r>     8.3986     4.0334    39.1550 </r>
       <r>     8.4691     3.7862    39.4219 </r>
       <r>     8.5396     3.6122    39.6765 </r>
       <r>     8.6101     3.4560    39.9200 </r>
       <r>     8.6805     3.2740    40.1508 </r>
       <r>     8.7510     3.0836    40.3681 </r>
       <r>     8.8215     2.9430    40.5755 </r>
       <r>     8.8920     2.8748    40.7782 </r>
       <r>     8.9625     2.8188    40.9768 </r>
       <r>     9.0330     2.6730    41.1652 </r>
       <r>     9.1034     2.3730    41.3325 </r>
       <r>     9.1739     1.9391    41.4692 </r>
       <r>     9.2444     1.4624    41.5722 </r>
       <r>     9.3149     1.0452    41.6459 </r>
       <r>     9.3854     0.7425    41.6982 </r>
       <r>     9.4558     0.5463    41.7367 </r>
       <r>     9.5263     0.4180    41.7662 </r>
       <r>     9.5968     0.3250    41.7891 </r>
       <r>     9.6673     0.2503    41.8067 </r>
       <r>     9.7378     0.1841    41.8197 </r>
       <r>     9.8082     0.1225    41.8284 </r>
       <r>     9.8787     0.0700    41.8333 </r>
       <r>     9.9492     0.0348    41.8357 </r>
       <r>    10.0197     0.0217    41.8373 </r>
       <r>    10.0902     0.0353    41.8398 </r>
       <r>    10.1606     0.0840    41.8457 </r>
       <r>    10.2311     0.1727    41.8578 </r>
       <r>    10.3016     0.2830    41.8778 </r>
       <r>    10.3721     0.3670    41.9037 </r>
       <r>    10.4426     0.3767    41.9302 </r>
       <r>    10.5131     0.3064    41.9518 </r>
       <r>    10.5835     0.1992    41.9658 </r>
       <r>    10.6540     0.1082    41.9735 </r>
       <r>    10.7245     0.0602    41.9777 </r>
       <r>    10.7950     0.0505    41.9813 </r>
       <r>    10.8655     0.0591    41.9854 </r>
       <r>    10.9359     0.0656    41.9901 </r>
       <r>    11.0064     0.0594    41.9943 </r>
       <r>    11.0769     0.0424    41.9972 </r>
       <r>    11.1474     0.0238    41.9989 </r>
       <r>    11.2179     0.0105    41.9997 </r>
       <r>    11.2883     0.0036    41.9999 </r>
       <r>    11.3588     0.0010    42.0000 </r>
       <r>    11.4293     0.0002    42.0000 </r>
       <r>    11.4998     0.0000    42.0000 </r>
       <r>    11.5703     0.0000    42.0000 </r>
       <r>    11.6407     0.0000    42.0000 </r>
       <r>    11.7112     0.0000    42.0000 </r>
       <r>    11.7817     0.0000    42.0000 </r>
       <r>    11.8522     0.0000    42.0000 </r>
       <r>    11.9227     0.0000    42.0000 </r>
       <r>    11.9931     0.0000    42.0000 </r>
       <r>    12.0636     0.0000    42.0000 </r>
       <r>    12.1341     0.0000    42.0000 </r>
       <r>    12.2046     0.0000    42.0000 </r>
       <r>    12.2751     0.0000    42.0000 </r>
       <r>    12.3456     0.0000    42.0000 </r>
       <r>    12.4160     0.0000    42.0000 </r>
       <r>    12.4865     0.0000    42.0000 </r>
       <r>    12.5570     0.0000    42.0000 </r>
       <r>    12.6275     0.0000    42.0000 </r>
       <r>    12.6980     0.0000    42.0000 </r>
       <r>    12.7684     0.0000    42.0000 </r>
       <r>    12.8389     0.0000    42.0000 </r>
       <r>    12.9094     0.0000    42.0000 </r>
      </set>
     </set>
    </array>
   </total>
  </dos>
 </calculation>
 <structure name="finalpos" >
  <crystal>
   <varray name="basis" >
    <v>       5.46503124       0.00000000       0.00000000 </v>
    <v>       0.00000000       5.46503124       0.00000000 </v>
    <v>       0.00000000       0.00000000       5.46503124 </v>
   </varray>
   <i name="volume">    163.22171868 </i>
   <varray name="rec_basis" >
    <v>       0.18298157       0.00000000       0.00000000 </v>
    <v>       0.00000000       0.18298157       0.00000000 </v>
    <v>       0.00000000       0.00000000       0.18298157 </v>
   </varray>
  </crystal>
  <varray name="positions" >
   <v>       0.00000000       0.00000000       0.00000000 </v>
   <v>       0.00000000       0.50000000       0.50000000 </v>
   <v>       0.45000000       0.50000000       0.00000000 </v>
   <v>       0.50000000       0.00000000       0.50000000 </v>
   <v>       0.75000000       0.25000000       0.75000000 </v>
   <v>       0.25000000       0.25000000       0.25000000 </v>
   <v>       0.25000000       0.75000000       0.75000000 </v>
   <v>       0.75000000       0.75000000       0.25000000 </v>
  </varray>
 </structure>
</modeling>
