 104 104   0   0
  0.2069891E+02  0.1542880E-08  0.1542880E-08  0.9043084E-09  0.5000000E-15
  1.000000000000000E-004
  CAR
 unknown system
      8.92850990    -13.77814029  301      2.96801422      1.00000000
    -13.778  0.0000E+00  0.0000E+00
    -13.702  0.0000E+00  0.0000E+00
    -13.627  0.0000E+00  0.0000E+00
    -13.551  0.0000E+00  0.0000E+00
    -13.475  0.0000E+00  0.0000E+00
    -13.400  0.0000E+00  0.0000E+00
    -13.324  0.0000E+00  0.0000E+00
    -13.248  0.0000E+00  0.0000E+00
    -13.173  0.0000E+00  0.0000E+00
    -13.097  0.0000E+00  0.0000E+00
    -13.021  0.0000E+00  0.0000E+00
    -12.946  0.0000E+00  0.0000E+00
    -12.870  0.0000E+00  0.0000E+00
    -12.794  0.6374E-10  0.4824E-11
    -12.718  0.1321E+02  0.1000E+01
    -12.643  0.1310E-01  0.1001E+01
    -12.567  0.7921E+02  0.6996E+01
    -12.491  0.2022E+03  0.2230E+02
    -12.416  0.8647E+02  0.2918E+02
    -12.340  0.3720E+02  0.3200E+02
    -12.264  0.0000E+00  0.3200E+02
    -12.189  0.0000E+00  0.3200E+02
    -12.113  0.0000E+00  0.3200E+02
    -12.037  0.0000E+00  0.3200E+02
    -11.962  0.0000E+00  0.3200E+02
    -11.886  0.0000E+00  0.3200E+02
    -11.810  0.0000E+00  0.3200E+02
    -11.735  0.0000E+00  0.3200E+02
    -11.659  0.0000E+00  0.3200E+02
    -11.583  0.0000E+00  0.3200E+02
    -11.507  0.0000E+00  0.3200E+02
    -11.432  0.0000E+00  0.3200E+02
    -11.356  0.0000E+00  0.3200E+02
    -11.280  0.0000E+00  0.3200E+02
    -11.205  0.0000E+00  0.3200E+02
    -11.129  0.0000E+00  0.3200E+02
    -11.053  0.0000E+00  0.3200E+02
    -10.978  0.0000E+00  0.3200E+02
    -10.902  0.0000E+00  0.3200E+02
    -10.826  0.0000E+00  0.3200E+02
    -10.751  0.0000E+00  0.3200E+02
    -10.675  0.0000E+00  0.3200E+02
    -10.599  0.0000E+00  0.3200E+02
    -10.524  0.0000E+00  0.3200E+02
    -10.448  0.0000E+00  0.3200E+02
    -10.372  0.0000E+00  0.3200E+02
    -10.296  0.0000E+00  0.3200E+02
    -10.221  0.1189E+01  0.3209E+02
    -10.145  0.2521E+02  0.3400E+02
    -10.069  0.1011E+02  0.3477E+02
     -9.994  0.1880E+03  0.4900E+02
     -9.918  0.9016E+02  0.5588E+02
     -9.842  0.1757E+03  0.6918E+02
     -9.767  0.2035E+03  0.8458E+02
     -9.691  0.7902E+02  0.9100E+02
     -9.615  0.1312E+03  0.1009E+03
     -9.540  0.2775E+02  0.1032E+03
     -9.464  0.1321E+03  0.1132E+03
     -9.388  0.1201E+03  0.1223E+03
     -9.312  0.6270E+02  0.1270E+03
     -9.237  0.2462E+00  0.1270E+03
     -9.161  0.1297E+02  0.1280E+03
     -9.085  0.0000E+00  0.1280E+03
     -9.010  0.0000E+00  0.1280E+03
     -8.934  0.0000E+00  0.1280E+03
     -8.858  0.0000E+00  0.1280E+03
     -8.783  0.0000E+00  0.1280E+03
     -8.707  0.0000E+00  0.1280E+03
     -8.631  0.0000E+00  0.1280E+03
     -8.556  0.0000E+00  0.1280E+03
     -8.480  0.0000E+00  0.1280E+03
     -8.404  0.0000E+00  0.1280E+03
     -8.329  0.0000E+00  0.1280E+03
     -8.253  0.0000E+00  0.1280E+03
     -8.177  0.0000E+00  0.1280E+03
     -8.101  0.0000E+00  0.1280E+03
     -8.026  0.0000E+00  0.1280E+03
     -7.950  0.0000E+00  0.1280E+03
     -7.874  0.0000E+00  0.1280E+03
     -7.799  0.0000E+00  0.1280E+03
     -7.723  0.0000E+00  0.1280E+03
     -7.647  0.0000E+00  0.1280E+03
     -7.572  0.0000E+00  0.1280E+03
     -7.496  0.0000E+00  0.1280E+03
     -7.420  0.0000E+00  0.1280E+03
     -7.345  0.0000E+00  0.1280E+03
     -7.269  0.0000E+00  0.1280E+03
     -7.193  0.0000E+00  0.1280E+03
     -7.118  0.0000E+00  0.1280E+03
     -7.042  0.0000E+00  0.1280E+03
     -6.966  0.0000E+00  0.1280E+03
     -6.890  0.0000E+00  0.1280E+03
     -6.815  0.0000E+00  0.1280E+03
     -6.739  0.0000E+00  0.1280E+03
     -6.663  0.0000E+00  0.1280E+03
     -6.588  0.0000E+00  0.1280E+03
     -6.512  0.0000E+00  0.1280E+03
     -6.436  0.0000E+00  0.1280E+03
     -6.361  0.0000E+00  0.1280E+03
     -6.285  0.7701E-13  0.1280E+03
     -6.209  0.1319E+02  0.1290E+03
     -6.134  0.0000E+00  0.1290E+03
     -6.058  0.0000E+00  0.1290E+03
     -5.982  0.0000E+00  0.1290E+03
     -5.907  0.1489E+02  0.1301E+03
     -5.831  0.6223E+02  0.1348E+03
     -5.755  0.2013E-02  0.1350E+03
     -5.679  0.1056E+03  0.1430E+03
     -5.604  0.9059E+02  0.1499E+03
     -5.528  0.2833E+02  0.1520E+03
     -5.452  0.1056E+03  0.1600E+03
     -5.377  0.0000E+00  0.1600E+03
     -5.301  0.0000E+00  0.1600E+03
     -5.225  0.0000E+00  0.1600E+03
     -5.150  0.0000E+00  0.1600E+03
     -5.074  0.0000E+00  0.1600E+03
     -4.998  0.0000E+00  0.1600E+03
     -4.923  0.0000E+00  0.1600E+03
     -4.847  0.0000E+00  0.1600E+03
     -4.771  0.0000E+00  0.1600E+03
     -4.695  0.0000E+00  0.1600E+03
     -4.620  0.0000E+00  0.1600E+03
     -4.544  0.0000E+00  0.1600E+03
     -4.468  0.0000E+00  0.1600E+03
     -4.393  0.0000E+00  0.1600E+03
     -4.317  0.0000E+00  0.1600E+03
     -4.241  0.0000E+00  0.1600E+03
     -4.166  0.0000E+00  0.1600E+03
     -4.090  0.7028E-02  0.1600E+03
     -4.014  0.1320E+02  0.1610E+03
     -3.939  0.1300E+01  0.1611E+03
     -3.863  0.1970E+03  0.1760E+03
     -3.787  0.2827E+03  0.1977E+03
     -3.712  0.3090E+03  0.2212E+03
     -3.636  0.2574E+03  0.2407E+03
     -3.560  0.2030E+03  0.2561E+03
     -3.484  0.3837E+03  0.2853E+03
     -3.409  0.2859E+03  0.3078E+03
     -3.333  0.5814E+03  0.3519E+03
     -3.257  0.4586E+03  0.3867E+03
     -3.182  0.8504E+02  0.3934E+03
     -3.106  0.9889E+02  0.4009E+03
     -3.030  0.1293E+02  0.4020E+03
     -2.955  0.5282E+02  0.4060E+03
     -2.879  0.2906E-02  0.4060E+03
     -2.803  0.3821E+02  0.4089E+03
     -2.728  0.9390E+02  0.4160E+03
     -2.652  0.3594E-13  0.4160E+03
     -2.576  0.2635E+02  0.4180E+03
     -2.501  0.4324E+02  0.4213E+03
     -2.425  0.1017E+03  0.4290E+03
     -2.349  0.2869E-07  0.4290E+03
     -2.273  0.8316E+02  0.4353E+03
     -2.198  0.4896E+02  0.4390E+03
     -2.122  0.6606E+02  0.4440E+03
     -2.046  0.1189E+03  0.4530E+03
     -1.971  0.4639E+02  0.4565E+03
     -1.895  0.1240E+03  0.4659E+03
     -1.819  0.1184E+03  0.4750E+03
     -1.744  0.1327E+03  0.4851E+03
     -1.668  0.2578E+02  0.4870E+03
     -1.592  0.8085E+02  0.4931E+03
     -1.517  0.2570E+02  0.4951E+03
     -1.441  0.5187E+02  0.4990E+03
     -1.365  0.1507E-06  0.4990E+03
     -1.289  0.6606E+02  0.5040E+03
     -1.214  0.5806E+01  0.5044E+03
     -1.138  0.7415E+01  0.5050E+03
     -1.062  0.1320E+02  0.5060E+03
     -0.987  0.5317E+02  0.5100E+03
     -0.911  0.2610E+02  0.5120E+03
     -0.835  0.3573E+02  0.5147E+03
     -0.760  0.5660E+02  0.5190E+03
     -0.684  0.2642E+02  0.5210E+03
     -0.608  0.3286E+02  0.5235E+03
     -0.533  0.6781E+01  0.5240E+03
     -0.457  0.3861E+02  0.5269E+03
     -0.381  0.1215E+03  0.5362E+03
     -0.306  0.4088E+02  0.5401E+03
     -0.230  0.7802E+02  0.5460E+03
     -0.154  0.5041E-03  0.5460E+03
     -0.078  0.2641E+02  0.5480E+03
     -0.003  0.5285E+02  0.5520E+03
      0.073  0.7927E+02  0.5580E+03
      0.149  0.1321E+02  0.5590E+03
      0.224  0.8415E+02  0.5654E+03
      0.300  0.3914E+02  0.5690E+03
      0.376  0.7177E+02  0.5744E+03
      0.451  0.3890E+01  0.5750E+03
      0.527  0.3494E+01  0.5753E+03
      0.603  0.7578E+02  0.5810E+03
      0.678  0.4011E+01  0.5813E+03
      0.754  0.1390E+03  0.5918E+03
      0.830  0.1529E+03  0.6034E+03
      0.905  0.1106E+03  0.6120E+03
      0.981  0.6016E+02  0.6166E+03
      1.057  0.4470E+02  0.6200E+03
      1.133  0.7967E+02  0.6260E+03
      1.208  0.9762E+02  0.6335E+03
      1.284  0.9921E+02  0.6410E+03
      1.360  0.9127E+02  0.6479E+03
      1.435  0.1045E+03  0.6559E+03
      1.511  0.1269E+03  0.6660E+03
      1.587  0.2707E+02  0.6680E+03
      1.662  0.9181E+02  0.6750E+03
      1.738  0.5203E+00  0.6750E+03
      1.814  0.1189E+03  0.6840E+03
      1.889  0.1178E+03  0.6930E+03
      1.965  0.8327E+02  0.6994E+03
      2.041  0.9651E+01  0.7001E+03
      2.117  0.1211E+03  0.7093E+03
      2.192  0.7909E+02  0.7160E+03
      2.268  0.8348E+02  0.7223E+03
      2.344  0.5119E+02  0.7262E+03
      2.419  0.8993E+02  0.7330E+03
      2.495  0.6242E+02  0.7377E+03
      2.571  0.8704E+02  0.7444E+03
      2.646  0.7196E+02  0.7498E+03
      2.722  0.0000E+00  0.7500E+03
      2.798  0.6504E+01  0.7505E+03
      2.873  0.1253E+02  0.7514E+03
      2.949  0.7386E+01  0.7520E+03
      3.025  0.0000E+00  0.7520E+03
      3.100  0.0000E+00  0.7520E+03
      3.176  0.0000E+00  0.7520E+03
      3.252  0.0000E+00  0.7520E+03
      3.328  0.0000E+00  0.7520E+03
      3.403  0.0000E+00  0.7520E+03
      3.479  0.0000E+00  0.7520E+03
      3.555  0.0000E+00  0.7520E+03
      3.630  0.0000E+00  0.7520E+03
      3.706  0.0000E+00  0.7520E+03
      3.782  0.0000E+00  0.7520E+03
      3.857  0.0000E+00  0.7520E+03
      3.933  0.0000E+00  0.7520E+03
      4.009  0.0000E+00  0.7520E+03
      4.084  0.0000E+00  0.7520E+03
      4.160  0.0000E+00  0.7520E+03
      4.236  0.0000E+00  0.7520E+03
      4.311  0.0000E+00  0.7520E+03
      4.387  0.0000E+00  0.7520E+03
      4.463  0.0000E+00  0.7520E+03
      4.539  0.0000E+00  0.7520E+03
      4.614  0.0000E+00  0.7520E+03
      4.690  0.0000E+00  0.7520E+03
      4.766  0.0000E+00  0.7520E+03
      4.841  0.0000E+00  0.7520E+03
      4.917  0.0000E+00  0.7520E+03
      4.993  0.0000E+00  0.7520E+03
      5.068  0.1463E-05  0.7520E+03
      5.144  0.1321E+02  0.7530E+03
      5.220  0.0000E+00  0.7530E+03
      5.295  0.0000E+00  0.7530E+03
      5.371  0.0000E+00  0.7530E+03
      5.447  0.3255E-01  0.7530E+03
      5.523  0.6680E+02  0.7581E+03
      5.598  0.1180E+03  0.7670E+03
      5.674  0.7922E+02  0.7730E+03
      5.750  0.5285E+02  0.7770E+03
      5.825  0.5356E-01  0.7770E+03
      5.901  0.6573E+02  0.7820E+03
      5.977  0.2656E+02  0.7840E+03
      6.052  0.3953E+02  0.7870E+03
      6.128  0.3616E+02  0.7897E+03
      6.204  0.2360E+02  0.7915E+03
      6.279  0.8747E+02  0.7981E+03
      6.355  0.6013E+02  0.8027E+03
      6.431  0.6389E+02  0.8075E+03
      6.506  0.7694E+02  0.8134E+03
      6.582  0.6131E+02  0.8180E+03
      6.658  0.5441E+02  0.8221E+03
      6.734  0.8394E+02  0.8285E+03
      6.809  0.1173E+03  0.8374E+03
      6.885  0.9633E+02  0.8454E+03
      6.961  0.2950E+02  0.8476E+03
      7.036  0.1614E+03  0.8598E+03
      7.112  0.7927E+02  0.8660E+03
      7.188  0.7946E+02  0.8720E+03
      7.263  0.9874E+02  0.8797E+03
      7.339  0.4525E-12  0.8800E+03
      7.415  0.7799E+02  0.8859E+03
      7.490  0.2926E+02  0.8882E+03
      7.566  0.2357E+02  0.8900E+03
      7.642  0.1094E+03  0.8983E+03
      7.717  0.4684E+02  0.9019E+03
      7.793  0.0000E+00  0.9020E+03
      7.869  0.2158E-02  0.9020E+03
      7.945  0.2642E+02  0.9040E+03
      8.020  0.0000E+00  0.9040E+03
      8.096  0.0000E+00  0.9040E+03
      8.172  0.0000E+00  0.9040E+03
      8.247  0.0000E+00  0.9040E+03
      8.323  0.0000E+00  0.9040E+03
      8.399  0.0000E+00  0.9040E+03
      8.474  0.0000E+00  0.9040E+03
      8.550  0.0000E+00  0.9040E+03
      8.626  0.0000E+00  0.9040E+03
      8.701  0.0000E+00  0.9040E+03
      8.777  0.0000E+00  0.9040E+03
      8.853  0.0000E+00  0.9040E+03
      8.929  0.0000E+00  0.9040E+03
