Automatically generated mesh
       2
Reciprocal lattice
    0.00000000000000    0.00000000000000    0.00000000000000             1
    0.00000000000000    0.00000000000000    0.50000000000000             1
