unknown system                          
           1
    15.428799    0.000000    0.000000
     0.000000   15.428799    0.000000
     0.000000    0.000000    9.043083
   P    S    Zn
  16  64  24
Direct configuration=     1
   0.37912578  0.37152236  0.75000000
   0.87847764  0.37152236  0.75000000
   0.37847764  0.87152236  0.75000000
   0.87847764  0.87152236  0.75000000
   0.37152236  0.12152236  0.25000000
   0.87152236  0.12152236  0.25000000
   0.37152236  0.62152236  0.25000000
   0.87152236  0.62152236  0.25000000
   0.12847764  0.37847764  0.25000000
   0.62847764  0.37847764  0.25000000
   0.12847764  0.87847764  0.25000000
   0.62847764  0.87847764  0.25000000
   0.12152236  0.12847764  0.75000000
   0.62152236  0.12847764  0.75000000
   0.12152236  0.62847764  0.75000000
   0.62152236  0.62847764  0.75000000
   0.24150179  0.12402830  0.64059019
   0.74150179  0.12402830  0.64059019
   0.24150179  0.62402830  0.64059019
   0.74150179  0.62402830  0.64059019
   0.12402830  0.25849821  0.35940981
   0.62402830  0.25849821  0.35940981
   0.12402830  0.75849821  0.35940981
   0.62402830  0.75849821  0.35940981
   0.37402830  0.49150179  0.85940981
   0.87402830  0.49150179  0.85940981
   0.37402830  0.99150179  0.85940981
   0.87402830  0.99150179  0.85940981
   0.12597170  0.00849821  0.85940981
   0.62597170  0.00849821  0.85940981
   0.12597170  0.50849821  0.85940981
   0.62597170  0.50849821  0.85940981
   0.00849821  0.37402830  0.14059019
   0.50849821  0.37402830  0.14059019
   0.00849821  0.87402830  0.14059019
   0.50849821  0.87402830  0.14059019
   0.49150179  0.12597170  0.14059019
   0.99150179  0.12597170  0.14059019
   0.49150179  0.62597170  0.14059019
   0.99150179  0.62597170  0.14059019
   0.48532882  0.38339447  0.62314772
   0.98532882  0.38339447  0.62314772
   0.48532882  0.88339447  0.62314772
   0.98532882  0.88339447  0.62314772
   0.38339447  0.01467118  0.37685228
   0.88339447  0.01467118  0.37685228
   0.38339447  0.51467118  0.37685228
   0.88339447  0.51467118  0.37685228
   0.11660553  0.48532882  0.37685228
   0.61660553  0.48532882  0.37685228
   0.11660553  0.98532882  0.37685228
   0.61660553  0.98532882  0.37685228
   0.01467118  0.11660553  0.62314772
   0.51467118  0.11660553  0.62314772
   0.01467118  0.61660553  0.62314772
   0.51467118  0.61660553  0.62314772
   0.36660553  0.26467118  0.87685228
   0.86660553  0.26467118  0.87685228
   0.36660553  0.76467118  0.87685228
   0.86660553  0.76467118  0.87685228
   0.13339447  0.23532882  0.87685228
   0.63339447  0.23532882  0.87685228
   0.13339447  0.73532882  0.87685228
   0.63339447  0.73532882  0.87685228
   0.23532882  0.36660553  0.12314772
   0.73532882  0.36660553  0.12314772
   0.23532882  0.86660553  0.12314772
   0.73532882  0.86660553  0.12314772
   0.26467118  0.13339447  0.12314772
   0.76467118  0.13339447  0.12314772
   0.26467118  0.63339447  0.12314772
   0.76467118  0.63339447  0.12314772
   0.25849821  0.37597170  0.64059019
   0.75849821  0.37597170  0.64059019
   0.25849821  0.87597170  0.64059019
   0.75849821  0.87597170  0.64059019
   0.37597170  0.24150179  0.35940981
   0.87597170  0.24150179  0.35940981
   0.37597170  0.74150179  0.35940981
   0.87597170  0.74150179  0.35940981
   0.00000000  0.25000000  0.98510933
   0.50000000  0.25000000  0.98510933
   0.00000000  0.75000000  0.98510933
   0.50000000  0.75000000  0.98510933
   0.25000000  0.00000000  0.01489067
   0.75000000  0.00000000  0.01489067
   0.25000000  0.50000000  0.01489067
   0.75000000  0.50000000  0.01489067
   0.00000000  0.25000000  0.51489067
   0.50000000  0.25000000  0.51489067
   0.00000000  0.75000000  0.51489067
   0.50000000  0.75000000  0.51489067
   0.25000000  0.00000000  0.48510933
   0.75000000  0.00000000  0.48510933
   0.25000000  0.50000000  0.48510933
   0.75000000  0.50000000  0.48510933
   0.25000000  0.25000000  0.50000000
   0.75000000  0.25000000  0.50000000
   0.25000000  0.75000000  0.50000000
   0.75000000  0.75000000  0.50000000
   0.00000000  0.00000000  0.00000000
   0.50000000  0.00000000  0.00000000
   0.00000000  0.50000000  0.00000000
   0.50000000  0.50000000  0.00000000
