<?xml version="1.0" encoding="ISO-8859-1"?>
<modeling>
 <generator>
  <i name="program" type="string">vasp </i>
  <i name="version" type="string">5.4.1  </i>
  <i name="subversion" type="string">05Feb16 (build Oct 11 2016 12:26:42) complex                          parallel </i>
  <i name="platform" type="string">UNITY_VASP_5.4.1 </i>
  <i name="date" type="string">2018 01 22 </i>
  <i name="time" type="string">09:40:47 </i>
 </generator>
 <incar>
  <i type="string" name="PREC">a</i>
  <i type="string" name="ALGO"> V</i>
  <i type="int" name="ISPIN">     2</i>
  <i name="ENCUT">    350.00000000</i>
  <i type="int" name="NEDOS">  1000</i>
  <i name="EMIN">    -10.00000000</i>
  <i name="EMAX">     10.00000000</i>
  <i type="int" name="ISMEAR">     0</i>
  <v type="int" name="KPOINT_BSE">    -1     0     0     0</v>
 </incar>
 <kpoints>
  <generation param="Gamma">
   <v type="int" name="divisions">       7        7        7 </v>
   <v name="usershift">      0.00000000       0.00000000       0.00000000 </v>
   <v name="genvec1">      0.14285714       0.00000000       0.00000000 </v>
   <v name="genvec2">      0.00000000       0.14285714       0.00000000 </v>
   <v name="genvec3">      0.00000000       0.00000000       0.14285714 </v>
   <v name="shift">      0.00000000       0.00000000       0.00000000 </v>
  </generation>
  <varray name="kpointlist" >
   <v>       0.00000000       0.00000000       0.00000000 </v>
   <v>       0.14285714       0.00000000       0.00000000 </v>
   <v>       0.28571429       0.00000000       0.00000000 </v>
   <v>       0.42857143       0.00000000       0.00000000 </v>
   <v>       0.00000000       0.14285714       0.00000000 </v>
   <v>       0.14285714       0.14285714       0.00000000 </v>
   <v>       0.28571429       0.14285714       0.00000000 </v>
   <v>       0.42857143       0.14285714       0.00000000 </v>
   <v>       0.00000000       0.28571429       0.00000000 </v>
   <v>       0.14285714       0.28571429       0.00000000 </v>
   <v>       0.28571429       0.28571429       0.00000000 </v>
   <v>       0.42857143       0.28571429       0.00000000 </v>
   <v>       0.00000000       0.42857143       0.00000000 </v>
   <v>       0.14285714       0.42857143       0.00000000 </v>
   <v>       0.28571429       0.42857143       0.00000000 </v>
   <v>       0.42857143       0.42857143       0.00000000 </v>
   <v>       0.00000000       0.14285714       0.14285714 </v>
   <v>       0.14285714       0.14285714       0.14285714 </v>
   <v>       0.28571429       0.14285714       0.14285714 </v>
   <v>       0.42857143       0.14285714       0.14285714 </v>
   <v>       0.00000000       0.28571429       0.14285714 </v>
   <v>       0.14285714       0.28571429       0.14285714 </v>
   <v>       0.28571429       0.28571429       0.14285714 </v>
   <v>       0.42857143       0.28571429       0.14285714 </v>
   <v>       0.00000000       0.42857143       0.14285714 </v>
   <v>       0.14285714       0.42857143       0.14285714 </v>
   <v>       0.28571429       0.42857143       0.14285714 </v>
   <v>       0.42857143       0.42857143       0.14285714 </v>
   <v>       0.00000000      -0.42857143       0.14285714 </v>
   <v>       0.14285714      -0.42857143       0.14285714 </v>
   <v>       0.28571429      -0.42857143       0.14285714 </v>
   <v>       0.42857143      -0.42857143       0.14285714 </v>
   <v>       0.00000000      -0.28571429       0.14285714 </v>
   <v>       0.14285714      -0.28571429       0.14285714 </v>
   <v>       0.28571429      -0.28571429       0.14285714 </v>
   <v>       0.42857143      -0.28571429       0.14285714 </v>
   <v>       0.00000000      -0.14285714       0.14285714 </v>
   <v>       0.14285714      -0.14285714       0.14285714 </v>
   <v>       0.28571429      -0.14285714       0.14285714 </v>
   <v>       0.42857143      -0.14285714       0.14285714 </v>
   <v>       0.00000000       0.28571429       0.28571429 </v>
   <v>       0.14285714       0.28571429       0.28571429 </v>
   <v>       0.28571429       0.28571429       0.28571429 </v>
   <v>       0.42857143       0.28571429       0.28571429 </v>
   <v>       0.00000000       0.42857143       0.28571429 </v>
   <v>       0.14285714       0.42857143       0.28571429 </v>
   <v>       0.28571429       0.42857143       0.28571429 </v>
   <v>       0.42857143       0.42857143       0.28571429 </v>
   <v>       0.00000000      -0.42857143       0.28571429 </v>
   <v>       0.14285714      -0.42857143       0.28571429 </v>
   <v>       0.28571429      -0.42857143       0.28571429 </v>
   <v>       0.42857143      -0.42857143       0.28571429 </v>
   <v>       0.00000000      -0.28571429       0.28571429 </v>
   <v>       0.14285714      -0.28571429       0.28571429 </v>
   <v>       0.28571429      -0.28571429       0.28571429 </v>
   <v>       0.42857143      -0.28571429       0.28571429 </v>
   <v>       0.00000000       0.42857143       0.42857143 </v>
   <v>       0.14285714       0.42857143       0.42857143 </v>
   <v>       0.28571429       0.42857143       0.42857143 </v>
   <v>       0.42857143       0.42857143       0.42857143 </v>
   <v>       0.00000000      -0.42857143       0.42857143 </v>
   <v>       0.14285714      -0.42857143       0.42857143 </v>
   <v>       0.28571429      -0.42857143       0.42857143 </v>
   <v>       0.42857143      -0.42857143       0.42857143 </v>
  </varray>
  <varray name="weights" >
   <v>       0.00291545 </v>
   <v>       0.00583090 </v>
   <v>       0.00583090 </v>
   <v>       0.00583090 </v>
   <v>       0.01166181 </v>
   <v>       0.02332362 </v>
   <v>       0.02332362 </v>
   <v>       0.02332362 </v>
   <v>       0.01166181 </v>
   <v>       0.02332362 </v>
   <v>       0.02332362 </v>
   <v>       0.02332362 </v>
   <v>       0.01166181 </v>
   <v>       0.02332362 </v>
   <v>       0.02332362 </v>
   <v>       0.02332362 </v>
   <v>       0.00583090 </v>
   <v>       0.01166181 </v>
   <v>       0.01166181 </v>
   <v>       0.01166181 </v>
   <v>       0.01166181 </v>
   <v>       0.02332362 </v>
   <v>       0.02332362 </v>
   <v>       0.02332362 </v>
   <v>       0.01166181 </v>
   <v>       0.02332362 </v>
   <v>       0.02332362 </v>
   <v>       0.02332362 </v>
   <v>       0.01166181 </v>
   <v>       0.02332362 </v>
   <v>       0.02332362 </v>
   <v>       0.02332362 </v>
   <v>       0.01166181 </v>
   <v>       0.02332362 </v>
   <v>       0.02332362 </v>
   <v>       0.02332362 </v>
   <v>       0.00583090 </v>
   <v>       0.01166181 </v>
   <v>       0.01166181 </v>
   <v>       0.01166181 </v>
   <v>       0.00583090 </v>
   <v>       0.01166181 </v>
   <v>       0.01166181 </v>
   <v>       0.01166181 </v>
   <v>       0.01166181 </v>
   <v>       0.02332362 </v>
   <v>       0.02332362 </v>
   <v>       0.02332362 </v>
   <v>       0.01166181 </v>
   <v>       0.02332362 </v>
   <v>       0.02332362 </v>
   <v>       0.02332362 </v>
   <v>       0.00583090 </v>
   <v>       0.01166181 </v>
   <v>       0.01166181 </v>
   <v>       0.01166181 </v>
   <v>       0.00583090 </v>
   <v>       0.01166181 </v>
   <v>       0.01166181 </v>
   <v>       0.01166181 </v>
   <v>       0.00583090 </v>
   <v>       0.01166181 </v>
   <v>       0.01166181 </v>
   <v>       0.01166181 </v>
  </varray>
 </kpoints>
 <parameters>
  <separator name="general" >
   <i type="string" name="SYSTEM">unknown system</i>
   <i type="logical" name="LCOMPAT"> F  </i>
  </separator>
  <separator name="electronic" >
   <i type="string" name="PREC">a</i>
   <i name="ENMAX">    350.00000000</i>
   <i name="ENAUG">    322.06900000</i>
   <i name="EDIFF">      0.00010000</i>
   <i type="int" name="IALGO">    48</i>
   <i type="int" name="IWAVPR">    10</i>
   <i type="int" name="NBANDS">    25</i>
   <i name="NELECT">     32.00000000</i>
   <i type="int" name="TURBO">     0</i>
   <i type="int" name="IRESTART">     0</i>
   <i type="int" name="NREBOOT">     0</i>
   <i type="int" name="NMIN">     0</i>
   <i name="EREF">      0.00000000</i>
   <separator name="electronic smearing" >
    <i type="int" name="ISMEAR">     0</i>
    <i name="SIGMA">      0.20000000</i>
    <i name="KSPACING">      0.50000000</i>
    <i type="logical" name="KGAMMA"> T  </i>
   </separator>
   <separator name="electronic projectors" >
    <i type="logical" name="LREAL"> F  </i>
    <v name="ROPT">      0.00000000</v>
    <i type="int" name="LMAXPAW">  -100</i>
    <i type="int" name="LMAXMIX">     2</i>
    <i type="logical" name="NLSPLINE"> F  </i>
   </separator>
   <separator name="electronic startup" >
    <i type="int" name="ISTART">     0</i>
    <i type="int" name="ICHARG">     2</i>
    <i type="int" name="INIWAV">     1</i>
   </separator>
   <separator name="electronic spin" >
    <i type="int" name="ISPIN">     2</i>
    <i type="logical" name="LNONCOLLINEAR"> F  </i>
    <v name="MAGMOM">      1.00000000      1.00000000      1.00000000      1.00000000      1.00000000      1.00000000      1.00000000      1.00000000</v>
    <i name="NUPDOWN">     -1.00000000</i>
    <i type="logical" name="LSORBIT"> F  </i>
    <v name="SAXIS">      0.00000000      0.00000000      1.00000000</v>
    <i type="logical" name="LSPIRAL"> F  </i>
    <v name="QSPIRAL">      0.00000000      0.00000000      0.00000000</v>
    <i type="logical" name="LZEROZ"> F  </i>
   </separator>
   <separator name="electronic exchange-correlation" >
    <i type="logical" name="LASPH"> F  </i>
    <i type="logical" name="LMETAGGA"> F  </i>
   </separator>
   <separator name="electronic convergence" >
    <i type="int" name="NELM">    60</i>
    <i type="int" name="NELMDL">   -12</i>
    <i type="int" name="NELMIN">     2</i>
    <i name="ENINI">    350.00000000</i>
    <separator name="electronic convergence detail" >
     <i type="logical" name="LDIAG"> T  </i>
     <i type="logical" name="LSUBROT"> F  </i>
     <i name="WEIMIN">      0.00000000</i>
     <i name="EBREAK">      0.00000100</i>
     <i name="DEPER">      0.30000000</i>
     <i type="int" name="NRMM">     4</i>
     <i name="TIME">      0.40000000</i>
    </separator>
   </separator>
   <separator name="electronic mixer" >
    <i name="AMIX">      0.40000000</i>
    <i name="BMIX">      1.00000000</i>
    <i name="AMIN">      0.10000000</i>
    <i name="AMIX_MAG">      1.60000000</i>
    <i name="BMIX_MAG">      1.00000000</i>
    <separator name="electronic mixer details" >
     <i type="int" name="IMIX">     4</i>
     <i type="logical" name="MIXFIRST"> F  </i>
     <i type="int" name="MAXMIX">   -45</i>
     <i name="WC">    100.00000000</i>
     <i type="int" name="INIMIX">     1</i>
     <i type="int" name="MIXPRE">     1</i>
     <i type="int" name="MREMOVE">     5</i>
    </separator>
   </separator>
   <separator name="electronic dipolcorrection" >
    <i type="logical" name="LDIPOL"> F  </i>
    <i type="logical" name="LMONO"> F  </i>
    <i type="int" name="IDIPOL">     0</i>
    <i name="EPSILON">      1.00000000</i>
    <v name="DIPOL">   -100.00000000   -100.00000000   -100.00000000</v>
    <i name="EFIELD">      0.00000000</i>
   </separator>
  </separator>
  <separator name="grids" >
   <i type="int" name="NGX">    36</i>
   <i type="int" name="NGY">    36</i>
   <i type="int" name="NGZ">    36</i>
   <i type="int" name="NGXF">    72</i>
   <i type="int" name="NGYF">    72</i>
   <i type="int" name="NGZF">    72</i>
   <i type="logical" name="ADDGRID"> F  </i>
  </separator>
  <separator name="ionic" >
   <i type="int" name="NSW">     0</i>
   <i type="int" name="IBRION">    -1</i>
   <i type="int" name="ISIF">     2</i>
   <i name="PSTRESS">      0.00000000</i>
   <i name="EDIFFG">      0.00100000</i>
   <i type="int" name="NFREE">     0</i>
   <i name="POTIM">      0.50000000</i>
   <i name="SMASS">     -3.00000000</i>
   <i name="SCALEE">      1.00000000</i>
  </separator>
  <separator name="ionic md" >
   <i name="TEBEG">      0.00010000</i>
   <i name="TEEND">      0.00010000</i>
   <i type="int" name="NBLOCK">     1</i>
   <i type="int" name="KBLOCK">     1</i>
   <i type="int" name="NPACO">   256</i>
   <i name="APACO">     16.00000000</i>
  </separator>
  <separator name="symmetry" >
   <i type="int" name="ISYM">     2</i>
   <i name="SYMPREC">      0.00001000</i>
  </separator>
  <separator name="dos" >
   <i type="logical" name="LORBIT"> F  </i>
   <v name="RWIGS">     -1.00000000</v>
   <i type="int" name="NEDOS">  1000</i>
   <i name="EMIN">    -10.00000000</i>
   <i name="EMAX">     10.00000000</i>
   <i name="EFERMI">      0.00000000</i>
  </separator>
  <separator name="writing" >
   <i type="int" name="NWRITE">     2</i>
   <i type="logical" name="LWAVE"> T  </i>
   <i type="logical" name="LCHARG"> T  </i>
   <i type="logical" name="LPARD"> F  </i>
   <i type="logical" name="LVTOT"> F  </i>
   <i type="logical" name="LVHAR"> F  </i>
   <i type="logical" name="LELF"> F  </i>
   <i type="logical" name="LOPTICS"> F  </i>
   <v name="STM">      0.00000000      0.00000000      0.00000000      0.00000000      0.00000000      0.00000000      0.00000000</v>
  </separator>
  <separator name="performance" >
   <i type="int" name="NPAR">     1</i>
   <i type="int" name="NSIM">     4</i>
   <i type="int" name="NBLK">    -1</i>
   <i type="logical" name="LPLANE"> T  </i>
   <i type="logical" name="LSCALAPACK"> T  </i>
   <i type="logical" name="LSCAAWARE"> F  </i>
   <i type="logical" name="LSCALU"> F  </i>
   <i type="logical" name="LASYNC"> F  </i>
   <i type="logical" name="LORBITALREAL"> F  </i>
  </separator>
  <separator name="miscellaneous" >
   <i type="int" name="IDIOT">     3</i>
   <i type="logical" name="LMUSIC"> F  </i>
   <v name="POMASS">     28.08500000</v>
   <v name="DARWINR">      0.00000000</v>
   <v name="DARWINV">      1.00000000</v>
   <i type="logical" name="LCORR"> T  </i>
  </separator>
  <i type="logical" name="GGA_COMPAT"> T  </i>
  <i type="logical" name="LBERRY"> F  </i>
  <i type="int" name="ICORELEVEL">     0</i>
  <i type="logical" name="LDAU"> F  </i>
  <i type="int" name="I_CONSTRAINED_M">     0</i>
  <separator name="electronic exchange-correlation" >
   <i type="string" name="GGA">--</i>
   <i type="int" name="VOSKOWN">     0</i>
   <i type="logical" name="LHFCALC"> F  </i>
   <i type="string" name="PRECFOCK"></i>
   <i type="logical" name="LSYMGRAD"> F  </i>
   <i type="logical" name="LHFONE"> F  </i>
   <i type="logical" name="LRHFCALC"> F  </i>
   <i type="logical" name="LTHOMAS"> F  </i>
   <i type="logical" name="LMODELHF"> F  </i>
   <i name="ENCUT4O">     -1.00000000</i>
   <i type="int" name="EXXOEP">     0</i>
   <i type="int" name="FOURORBIT">     0</i>
   <i name="AEXX">      0.00000000</i>
   <i name="HFALPHA">      0.00000000</i>
   <i name="MCALPHA">      0.00000000</i>
   <i name="ALDAX">      1.00000000</i>
   <i name="AGGAX">      1.00000000</i>
   <i name="ALDAC">      1.00000000</i>
   <i name="AGGAC">      1.00000000</i>
   <i type="int" name="NKREDX">     1</i>
   <i type="int" name="NKREDY">     1</i>
   <i type="int" name="NKREDZ">     1</i>
   <i type="logical" name="SHIFTRED"> F  </i>
   <i type="logical" name="ODDONLY"> F  </i>
   <i type="logical" name="EVENONLY"> F  </i>
   <i type="int" name="LMAXFOCK">     0</i>
   <i type="int" name="NMAXFOCKAE">     0</i>
   <i type="logical" name="LFOCKAEDFT"> F  </i>
   <i name="HFSCREEN">      0.00000000</i>
   <i name="HFSCREENC">      0.00000000</i>
   <i type="int" name="NBANDSGWLOW">     0</i>
  </separator>
  <separator name="vdW DFT" >
   <i type="logical" name="LUSE_VDW"> F  </i>
   <i name="Zab_VDW">     -0.84910000</i>
   <i name="PARAM1">      0.12340000</i>
   <i name="PARAM2">      1.00000000</i>
   <i name="PARAM3">      0.00000000</i>
  </separator>
  <separator name="model GW" >
   <i type="int" name="MODEL_GW">     0</i>
   <i name="MODEL_EPS0">     12.24162890</i>
   <i name="MODEL_ALPHA">      1.00000000</i>
  </separator>
  <separator name="linear response parameters" >
   <i type="logical" name="LEPSILON"> F  </i>
   <i type="logical" name="LRPA"> F  </i>
   <i type="logical" name="LNABLA"> F  </i>
   <i type="logical" name="LVEL"> F  </i>
   <i type="int" name="KINTER">******</i>
   <i name="CSHIFT">      0.10000000</i>
   <i name="OMEGAMAX">     -1.00000000</i>
   <i name="DEG_THRESHOLD">      0.00200000</i>
  </separator>
  <separator name="orbital magnetization" >
   <i type="logical" name="NUCIND"> F  </i>
   <v name="MAGPOS">      0.00000000      0.00000000      0.00000000</v>
   <i type="logical" name="LNICSALL"> T  </i>
   <i type="logical" name="ORBITALMAG"> F  </i>
   <i type="logical" name="LMAGBLOCH"> F  </i>
   <i type="logical" name="LCHIMAG"> F  </i>
   <i type="logical" name="LGAUGE"> T  </i>
   <i type="int" name="MAGATOM">     0</i>
   <v name="MAGDIPOL">      0.00000000      0.00000000      0.00000000</v>
   <v name="AVECCONST">      0.00000000      0.00000000      0.00000000</v>
  </separator>
  <separator name="response functions" >
   <i type="logical" name="LADDER"> F  </i>
   <i type="logical" name="LFXC"> F  </i>
   <i type="logical" name="LHARTREE"> T  </i>
   <i type="int" name="IBSE">     0</i>
   <v type="int" name="KPOINT">    -1     0     0     0</v>
   <i type="logical" name="LTCTE"> F  </i>
   <i type="logical" name="LTETE"> F  </i>
   <i type="logical" name="LTRIPLET"> F  </i>
   <i type="logical" name="LFXCEPS"> F  </i>
   <i type="logical" name="LFXHEG"> F  </i>
   <i type="int" name="NATURALO">     0</i>
   <i type="logical" name="L2ORDER"> F  </i>
   <i type="logical" name="LUSEW"> F  </i>
   <i name="ENCUTGW">     -2.00000000</i>
   <i name="ENCUTGWSOFT">     -2.00000000</i>
   <i name="ENCUTLF">     -1.00000000</i>
   <i type="int" name="LMAXMP2">    -1</i>
   <i name="SCISSOR">      0.00000000</i>
   <i type="int" name="NOMEGA">     0</i>
   <i type="int" name="NOMEGAR">     0</i>
   <i type="int" name="NBANDSGW">    -1</i>
   <i type="int" name="NBANDSO">    -1</i>
   <i type="int" name="NBANDSV">    -1</i>
   <i type="int" name="NELM">     1</i>
   <i type="int" name="NELMHF">     1</i>
   <i type="int" name="DIM">     3</i>
   <i type="int" name="ANTIRES">     0</i>
   <i name="OMEGAMAX">    -30.00000000</i>
   <i name="OMEGAMIN">    -30.00000000</i>
   <i name="OMEGATL">   -200.00000000</i>
   <i type="int" name="OMEGAGRID">     0</i>
   <i name="CSHIFT">     -0.10000000</i>
   <i type="logical" name="SELFENERGY"> F  </i>
   <i type="logical" name="LSPECTRAL"> F  </i>
   <i type="logical" name="LSPECTRALGW"> F  </i>
   <i type="logical" name="LSINGLES"> F  </i>
   <i type="logical" name="LFERMIGW"> F  </i>
   <i type="logical" name="ODDONLYGW"> F  </i>
   <i type="logical" name="EVENONLYGW"> F  </i>
   <i type="int" name="NKREDLFX">     1</i>
   <i type="int" name="NKREDLFY">     1</i>
   <i type="int" name="NKREDLFZ">     1</i>
   <i type="int" name="MAXMEM">  1800</i>
   <i type="int" name="TELESCOPE">     0</i>
   <i type="int" name="TAUPAR">     1</i>
   <i type="int" name="OMEGAPAR">    -1</i>
   <i name="LAMBDA">      1.00000000</i>
  </separator>
  <separator name="External order field" >
   <i name="OFIELD_KAPPA">      0.00000000</i>
   <v name="OFIELD_K">      0.00000000      0.00000000      0.00000000</v>
   <i name="OFIELD_Q6_NEAR">      0.00000000</i>
   <i name="OFIELD_Q6_FAR">      0.00000000</i>
   <i name="OFIELD_A">      0.00000000</i>
  </separator>
 </parameters>
 <atominfo>
  <atoms>       8 </atoms>
  <types>       1 </types>
  <array name="atoms" >
   <dimension dim="1">ion</dimension>
   <field type="string">element</field>
   <field type="int">atomtype</field>
   <set>
    <rc><c>Si</c><c>   1</c></rc>
    <rc><c>Si</c><c>   1</c></rc>
    <rc><c>Si</c><c>   1</c></rc>
    <rc><c>Si</c><c>   1</c></rc>
    <rc><c>Si</c><c>   1</c></rc>
    <rc><c>Si</c><c>   1</c></rc>
    <rc><c>Si</c><c>   1</c></rc>
    <rc><c>Si</c><c>   1</c></rc>
   </set>
  </array>
  <array name="atomtypes" >
   <dimension dim="1">type</dimension>
   <field type="int">atomspertype</field>
   <field type="string">element</field>
   <field>mass</field>
   <field>valence</field>
   <field type="string">pseudopotential</field>
   <set>
    <rc><c>   8</c><c>Si</c><c>     28.08500000</c><c>      4.00000000</c><c> PAW_PBE Si 05Jan2001                   </c></rc>
   </set>
  </array>
 </atominfo>
 <structure name="initialpos" >
  <crystal>
   <varray name="basis" >
    <v>       5.46503124       0.00000000       0.00000000 </v>
    <v>       0.00000000       5.46503124       0.00000000 </v>
    <v>       0.00000000       0.00000000       5.46503124 </v>
   </varray>
   <i name="volume">    163.22171868 </i>
   <varray name="rec_basis" >
    <v>       0.18298157       0.00000000       0.00000000 </v>
    <v>       0.00000000       0.18298157       0.00000000 </v>
    <v>       0.00000000       0.00000000       0.18298157 </v>
   </varray>
  </crystal>
  <varray name="positions" >
   <v>       0.00000000       0.00000000       0.00000000 </v>
   <v>       0.00000000       0.50000000       0.50000000 </v>
   <v>       0.45000000       0.50000000       0.00000000 </v>
   <v>       0.50000000       0.00000000       0.50000000 </v>
   <v>       0.75000000       0.25000000       0.75000000 </v>
   <v>       0.25000000       0.25000000       0.25000000 </v>
   <v>       0.25000000       0.75000000       0.75000000 </v>
   <v>       0.75000000       0.75000000       0.25000000 </v>
  </varray>
 </structure>
 <calculation>
  <scstep>
   <time name="diag">    1.09    1.09</time>
   <time name="diis">    0.86    0.86</time>
   <time name="orth">    0.50    0.50</time>
   <time name="total">    2.57    2.58</time>
   <energy>
    <i name="alphaZ">     13.19945063 </i>
    <i name="ewald">   -906.87732482 </i>
    <i name="hartreedc">    -45.91134206 </i>
    <i name="XCdc">    -73.79966548 </i>
    <i name="pawpsdc">    263.39189549 </i>
    <i name="pawaedc">   -122.59619568 </i>
    <i name="eentropy">     -0.02916161 </i>
    <i name="bandstr">    181.90376940 </i>
    <i name="atom">    824.52501657 </i>
    <i name="e_fr_energy">    133.80644245 </i>
    <i name="e_wo_entrp">    133.83560406 </i>
    <i name="e_0_energy">    133.82102325 </i>
   </energy>
  </scstep>
  <scstep>
   <time name="diag">    0.91    0.91</time>
   <time name="diis">    0.88    0.88</time>
   <time name="orth">    0.50    0.50</time>
   <time name="total">    2.32    2.32</time>
   <energy>
    <i name="e_fr_energy">      3.56023230 </i>
    <i name="e_wo_entrp">      3.60304720 </i>
    <i name="e_0_energy">      3.58163975 </i>
   </energy>
  </scstep>
  <scstep>
   <time name="diag">    0.90    0.90</time>
   <time name="diis">    0.88    0.88</time>
   <time name="orth">    0.50    0.50</time>
   <time name="total">    2.32    2.32</time>
   <energy>
    <i name="e_fr_energy">    -27.39536324 </i>
    <i name="e_wo_entrp">    -27.35575716 </i>
    <i name="e_0_energy">    -27.37556020 </i>
   </energy>
  </scstep>
  <scstep>
   <time name="diag">    0.90    0.90</time>
   <time name="diis">    0.88    0.88</time>
   <time name="orth">    0.50    0.50</time>
   <time name="total">    2.32    2.32</time>
   <energy>
    <i name="e_fr_energy">    -37.17331478 </i>
    <i name="e_wo_entrp">    -37.15351767 </i>
    <i name="e_0_energy">    -37.16341623 </i>
   </energy>
  </scstep>
  <scstep>
   <time name="diag">    0.90    0.90</time>
   <time name="diis">    0.88    0.88</time>
   <time name="orth">    0.50    0.50</time>
   <time name="total">    2.32    2.32</time>
   <energy>
    <i name="e_fr_energy">    -40.13059709 </i>
    <i name="e_wo_entrp">    -40.11942755 </i>
    <i name="e_0_energy">    -40.12501232 </i>
   </energy>
  </scstep>
  <scstep>
   <time name="diag">    0.91    0.91</time>
   <time name="diis">    0.87    0.88</time>
   <time name="orth">    0.51    0.51</time>
   <time name="total">    2.32    2.33</time>
   <energy>
    <i name="e_fr_energy">    -41.05520007 </i>
    <i name="e_wo_entrp">    -41.04227960 </i>
    <i name="e_0_energy">    -41.04873983 </i>
   </energy>
  </scstep>
  <scstep>
   <time name="diag">    0.91    0.91</time>
   <time name="diis">    0.87    0.87</time>
   <time name="orth">    0.50    0.50</time>
   <time name="total">    2.31    2.32</time>
   <energy>
    <i name="e_fr_energy">    -41.36623568 </i>
    <i name="e_wo_entrp">    -41.35392992 </i>
    <i name="e_0_energy">    -41.36008280 </i>
   </energy>
  </scstep>
  <scstep>
   <time name="diag">    0.92    0.92</time>
   <time name="diis">    0.87    0.87</time>
   <time name="orth">    0.51    0.51</time>
   <time name="total">    2.33    2.34</time>
   <energy>
    <i name="e_fr_energy">    -41.47994801 </i>
    <i name="e_wo_entrp">    -41.46828666 </i>
    <i name="e_0_energy">    -41.47411734 </i>
   </energy>
  </scstep>
  <scstep>
   <time name="diag">    0.92    0.92</time>
   <time name="diis">    2.26    2.26</time>
   <time name="orth">    0.51    0.51</time>
   <time name="total">    3.73    3.73</time>
   <energy>
    <i name="e_fr_energy">    -41.54220801 </i>
    <i name="e_wo_entrp">    -41.53042269 </i>
    <i name="e_0_energy">    -41.53631535 </i>
   </energy>
  </scstep>
  <scstep>
   <time name="diag">    0.98    0.98</time>
   <time name="diis">    2.51    2.51</time>
   <time name="orth">    0.51    0.51</time>
   <time name="total">    4.04    4.04</time>
   <energy>
    <i name="e_fr_energy">    -41.54969878 </i>
    <i name="e_wo_entrp">    -41.53787408 </i>
    <i name="e_0_energy">    -41.54378643 </i>
   </energy>
  </scstep>
  <scstep>
   <time name="diag">    1.18    1.19</time>
   <time name="diis">    2.50    2.50</time>
   <time name="orth">    0.51    0.51</time>
   <time name="total">    4.23    4.24</time>
   <energy>
    <i name="e_fr_energy">    -41.55011935 </i>
    <i name="e_wo_entrp">    -41.53828847 </i>
    <i name="e_0_energy">    -41.54420391 </i>
   </energy>
  </scstep>
  <scstep>
   <time name="diag">    0.92    0.92</time>
   <time name="diis">    2.03    2.03</time>
   <time name="orth">    0.50    0.51</time>
   <time name="total">    3.63    3.64</time>
   <energy>
    <i name="e_fr_energy">    -41.55014285 </i>
    <i name="e_wo_entrp">    -41.53831173 </i>
    <i name="e_0_energy">    -41.54422729 </i>
   </energy>
  </scstep>
  <scstep>
   <time name="diag">    1.15    1.15</time>
   <time name="diis">    2.27    2.27</time>
   <time name="orth">    0.50    0.50</time>
   <time name="total">    4.15    4.15</time>
   <energy>
    <i name="e_fr_energy">    -43.03218557 </i>
    <i name="e_wo_entrp">    -43.03042288 </i>
    <i name="e_0_energy">    -43.03130422 </i>
   </energy>
  </scstep>
  <scstep>
   <time name="diag">    0.91    0.91</time>
   <time name="diis">    1.91    1.91</time>
   <time name="orth">    0.50    0.50</time>
   <time name="total">    3.54    3.55</time>
   <energy>
    <i name="e_fr_energy">    -42.94922772 </i>
    <i name="e_wo_entrp">    -42.94717692 </i>
    <i name="e_0_energy">    -42.94820232 </i>
   </energy>
  </scstep>
  <scstep>
   <time name="diag">    0.94    0.95</time>
   <time name="diis">    2.08    2.08</time>
   <time name="orth">    0.51    0.51</time>
   <time name="total">    3.76    3.76</time>
   <energy>
    <i name="e_fr_energy">    -42.93104200 </i>
    <i name="e_wo_entrp">    -42.92860730 </i>
    <i name="e_0_energy">    -42.92982465 </i>
   </energy>
  </scstep>
  <scstep>
   <time name="diag">    0.91    0.91</time>
   <time name="diis">    2.19    2.19</time>
   <time name="orth">    0.50    0.50</time>
   <time name="total">    3.81    3.82</time>
   <energy>
    <i name="e_fr_energy">    -42.91244980 </i>
    <i name="e_wo_entrp">    -42.90998741 </i>
    <i name="e_0_energy">    -42.91121861 </i>
   </energy>
  </scstep>
  <scstep>
   <time name="diag">    0.91    0.91</time>
   <time name="diis">    2.29    2.29</time>
   <time name="orth">    0.50    0.50</time>
   <time name="total">    3.92    3.93</time>
   <energy>
    <i name="e_fr_energy">    -42.91187274 </i>
    <i name="e_wo_entrp">    -42.90944885 </i>
    <i name="e_0_energy">    -42.91066080 </i>
   </energy>
  </scstep>
  <scstep>
   <time name="diag">    0.91    0.91</time>
   <time name="diis">    2.19    2.19</time>
   <time name="orth">    0.50    0.50</time>
   <time name="total">    3.82    3.82</time>
   <energy>
    <i name="e_fr_energy">    -42.91223666 </i>
    <i name="e_wo_entrp">    -42.90985181 </i>
    <i name="e_0_energy">    -42.91104423 </i>
   </energy>
  </scstep>
  <scstep>
   <time name="diag">    0.91    0.91</time>
   <time name="diis">    1.77    1.77</time>
   <time name="orth">    0.50    0.50</time>
   <time name="total">    3.26    3.26</time>
   <energy>
    <i name="alphaZ">     13.19945063 </i>
    <i name="ewald">   -906.87732482 </i>
    <i name="hartreedc">    -61.23601475 </i>
    <i name="XCdc">    -72.19610163 </i>
    <i name="pawpsdc">    295.66084684 </i>
    <i name="pawaedc">   -155.76412083 </i>
    <i name="eentropy">     -0.00237363 </i>
    <i name="bandstr">     19.77832296 </i>
    <i name="atom">    824.52501657 </i>
    <i name="e_fr_energy">    -42.91229866 </i>
    <i name="e_wo_entrp">    -42.90992503 </i>
    <i name="e_0_energy">    -42.91111184 </i>
   </energy>
  </scstep>
  <structure>
   <crystal>
    <varray name="basis" >
     <v>       5.46503124       0.00000000       0.00000000 </v>
     <v>       0.00000000       5.46503124       0.00000000 </v>
     <v>       0.00000000       0.00000000       5.46503124 </v>
    </varray>
    <i name="volume">    163.22171868 </i>
    <varray name="rec_basis" >
     <v>       0.18298157       0.00000000       0.00000000 </v>
     <v>       0.00000000       0.18298157       0.00000000 </v>
     <v>       0.00000000       0.00000000       0.18298157 </v>
    </varray>
   </crystal>
   <varray name="positions" >
    <v>       0.00000000       0.00000000       0.00000000 </v>
    <v>       0.00000000       0.50000000       0.50000000 </v>
    <v>       0.45000000       0.50000000       0.00000000 </v>
    <v>       0.50000000       0.00000000       0.50000000 </v>
    <v>       0.75000000       0.25000000       0.75000000 </v>
    <v>       0.25000000       0.25000000       0.25000000 </v>
    <v>       0.25000000       0.75000000       0.75000000 </v>
    <v>       0.75000000       0.75000000       0.25000000 </v>
   </varray>
  </structure>
  <varray name="forces" >
   <v>      -0.24233744       0.00000000       0.00000000 </v>
   <v>      -0.24233744       0.00000000       0.00000000 </v>
   <v>       3.41457288       0.00000000       0.00000000 </v>
   <v>       0.44249007       0.00000000       0.00000000 </v>
   <v>      -0.73908343       0.43793389       0.43793389 </v>
   <v>      -0.94711061      -0.85019875       0.85019875 </v>
   <v>      -0.94711061       0.85019875      -0.85019875 </v>
   <v>      -0.73908343      -0.43793389      -0.43793389 </v>
  </varray>
  <varray name="stress" >
   <v>      -0.22191502       0.00000000       0.00000000 </v>
   <v>       0.00000000      12.65646353     -25.93487728 </v>
   <v>       0.00000000     -25.93487728      12.65646353 </v>
  </varray>
  <energy>
   <i name="e_fr_energy">    -42.91229866 </i>
   <i name="e_wo_entrp">    -42.91111184 </i>
   <i name="e_0_energy">     -0.00237363 </i>
  </energy>
  <time name="totalsc">   63.15   63.84</time>
  <eigenvalues>
   <array>
    <dimension dim="1">band</dimension>
    <dimension dim="2">kpoint</dimension>
    <dimension dim="3">spin</dimension>
    <field>eigene</field>
    <field>occ</field>
    <set>
     <set comment="spin 1">
      <set comment="kpoint 1">
       <r>   -6.2363    1.0000 </r>
       <r>   -2.5488    1.0000 </r>
       <r>   -2.3685    1.0000 </r>
       <r>   -2.1350    1.0000 </r>
       <r>   -2.1308    1.0000 </r>
       <r>   -1.9407    1.0000 </r>
       <r>   -1.6961    1.0000 </r>
       <r>    2.6191    1.0000 </r>
       <r>    2.7978    1.0000 </r>
       <r>    2.8148    1.0000 </r>
       <r>    2.8231    1.0000 </r>
       <r>    2.8609    1.0000 </r>
       <r>    3.0125    1.0000 </r>
       <r>    5.3393    1.0000 </r>
       <r>    5.6034    0.9948 </r>
       <r>    5.8939    0.6955 </r>
       <r>    6.1277    0.1267 </r>
       <r>    6.1730    0.0719 </r>
       <r>    6.3763    0.0019 </r>
       <r>    6.3976    0.0011 </r>
       <r>    6.5536    0.0000 </r>
       <r>    6.6564    0.0000 </r>
       <r>    8.0269    0.0000 </r>
       <r>    8.2371    0.0000 </r>
       <r>    8.7437    0.0000 </r>
      </set>
      <set comment="kpoint 2">
       <r>   -6.1511    1.0000 </r>
       <r>   -3.2168    1.0000 </r>
       <r>   -2.3459    1.0000 </r>
       <r>   -2.1334    1.0000 </r>
       <r>   -2.1037    1.0000 </r>
       <r>   -1.9094    1.0000 </r>
       <r>   -0.8971    1.0000 </r>
       <r>    2.5291    1.0000 </r>
       <r>    2.5892    1.0000 </r>
       <r>    2.6300    1.0000 </r>
       <r>    2.6435    1.0000 </r>
       <r>    2.7685    1.0000 </r>
       <r>    2.9977    1.0000 </r>
       <r>    5.0682    1.0000 </r>
       <r>    5.0996    1.0000 </r>
       <r>    5.5633    0.9978 </r>
       <r>    6.1511    0.0956 </r>
       <r>    6.5668    0.0000 </r>
       <r>    6.7711    0.0000 </r>
       <r>    6.8026    0.0000 </r>
       <r>    6.8468    0.0000 </r>
       <r>    7.0836    0.0000 </r>
       <r>    8.0483    0.0000 </r>
       <r>    8.5208    0.0000 </r>
       <r>    8.7759    0.0000 </r>
      </set>
      <set comment="kpoint 3">
       <r>   -5.8998    1.0000 </r>
       <r>   -4.0687    1.0000 </r>
       <r>   -2.2928    1.0000 </r>
       <r>   -2.0735    1.0000 </r>
       <r>   -2.0397    1.0000 </r>
       <r>   -1.8344    1.0000 </r>
       <r>    0.2727    1.0000 </r>
       <r>    2.1737    1.0000 </r>
       <r>    2.1824    1.0000 </r>
       <r>    2.1845    1.0000 </r>
       <r>    2.2089    1.0000 </r>
       <r>    2.9603    1.0000 </r>
       <r>    3.2072    1.0000 </r>
       <r>    4.0145    1.0000 </r>
       <r>    4.5188    1.0000 </r>
       <r>    4.8946    1.0000 </r>
       <r>    6.2466    0.0237 </r>
       <r>    7.2145    0.0000 </r>
       <r>    7.6418    0.0000 </r>
       <r>    7.7068    0.0000 </r>
       <r>    7.9417    0.0000 </r>
       <r>    7.9786    0.0000 </r>
       <r>    8.1387    0.0000 </r>
       <r>    9.5273    0.0000 </r>
       <r>    9.6512    0.0000 </r>
      </set>
      <set comment="kpoint 4">
       <r>   -5.5171    1.0000 </r>
       <r>   -4.7645    1.0000 </r>
       <r>   -2.2477    1.0000 </r>
       <r>   -2.0203    1.0000 </r>
       <r>   -1.9846    1.0000 </r>
       <r>   -1.7688    1.0000 </r>
       <r>    1.4994    1.0000 </r>
       <r>    1.8698    1.0000 </r>
       <r>    1.8929    1.0000 </r>
       <r>    1.9315    1.0000 </r>
       <r>    1.9364    1.0000 </r>
       <r>    2.7913    1.0000 </r>
       <r>    3.2586    1.0000 </r>
       <r>    3.5316    1.0000 </r>
       <r>    4.0058    1.0000 </r>
       <r>    4.3086    1.0000 </r>
       <r>    6.4973    0.0001 </r>
       <r>    6.9690    0.0000 </r>
       <r>    8.3065    0.0000 </r>
       <r>    9.1312    0.0000 </r>
       <r>    9.2556    0.0000 </r>
       <r>    9.4216    0.0000 </r>
       <r>    9.4485    0.0000 </r>
       <r>   10.7165    0.0000 </r>
       <r>   10.9937    0.0000 </r>
      </set>
      <set comment="kpoint 5">
       <r>   -6.1487    1.0000 </r>
       <r>   -3.2330    1.0000 </r>
       <r>   -2.4125    1.0000 </r>
       <r>   -2.1333    1.0000 </r>
       <r>   -2.1070    1.0000 </r>
       <r>   -1.7563    1.0000 </r>
       <r>   -0.9680    1.0000 </r>
       <r>    2.3983    1.0000 </r>
       <r>    2.5304    1.0000 </r>
       <r>    2.6175    1.0000 </r>
       <r>    2.7058    1.0000 </r>
       <r>    2.9486    1.0000 </r>
       <r>    2.9825    1.0000 </r>
       <r>    4.9181    1.0000 </r>
       <r>    5.3263    1.0000 </r>
       <r>    5.5219    0.9992 </r>
       <r>    6.1568    0.0889 </r>
       <r>    6.4662    0.0002 </r>
       <r>    6.6923    0.0000 </r>
       <r>    6.8293    0.0000 </r>
       <r>    6.9600    0.0000 </r>
       <r>    7.0711    0.0000 </r>
       <r>    7.9741    0.0000 </r>
       <r>    8.6891    0.0000 </r>
       <r>    9.2386    0.0000 </r>
      </set>
      <set comment="kpoint 6">
       <r>   -6.0642    1.0000 </r>
       <r>   -3.2733    1.0000 </r>
       <r>   -3.0317    1.0000 </r>
       <r>   -2.2451    1.0000 </r>
       <r>   -1.9504    1.0000 </r>
       <r>   -1.1221    1.0000 </r>
       <r>   -0.8271    1.0000 </r>
       <r>    2.0294    1.0000 </r>
       <r>    2.4935    1.0000 </r>
       <r>    2.6141    1.0000 </r>
       <r>    2.7099    1.0000 </r>
       <r>    2.8583    1.0000 </r>
       <r>    3.0188    1.0000 </r>
       <r>    4.3488    1.0000 </r>
       <r>    4.9771    1.0000 </r>
       <r>    5.6213    0.9926 </r>
       <r>    6.4115    0.0008 </r>
       <r>    6.5615    0.0000 </r>
       <r>    6.8174    0.0000 </r>
       <r>    7.1456    0.0000 </r>
       <r>    7.2006    0.0000 </r>
       <r>    7.8122    0.0000 </r>
       <r>    8.3070    0.0000 </r>
       <r>    8.4986    0.0000 </r>
       <r>    8.6195    0.0000 </r>
      </set>
      <set comment="kpoint 7">
       <r>   -5.8148    1.0000 </r>
       <r>   -4.0059    1.0000 </r>
       <r>   -3.0137    1.0000 </r>
       <r>   -2.3542    1.0000 </r>
       <r>   -1.7438    1.0000 </r>
       <r>   -1.1011    1.0000 </r>
       <r>    0.1838    1.0000 </r>
       <r>    1.6123    1.0000 </r>
       <r>    2.1025    1.0000 </r>
       <r>    2.5037    1.0000 </r>
       <r>    2.6992    1.0000 </r>
       <r>    2.9094    1.0000 </r>
       <r>    3.0862    1.0000 </r>
       <r>    3.4504    1.0000 </r>
       <r>    4.3599    1.0000 </r>
       <r>    5.1503    1.0000 </r>
       <r>    6.7254    0.0000 </r>
       <r>    7.0844    0.0000 </r>
       <r>    7.6258    0.0000 </r>
       <r>    7.8343    0.0000 </r>
       <r>    8.1341    0.0000 </r>
       <r>    8.2301    0.0000 </r>
       <r>    8.9632    0.0000 </r>
       <r>    9.1064    0.0000 </r>
       <r>   12.1016    0.0000 </r>
      </set>
      <set comment="kpoint 8">
       <r>   -5.4356    1.0000 </r>
       <r>   -4.6890    1.0000 </r>
       <r>   -2.8626    1.0000 </r>
       <r>   -2.4755    1.0000 </r>
       <r>   -1.5128    1.0000 </r>
       <r>   -1.2362    1.0000 </r>
       <r>    1.2805    1.0000 </r>
       <r>    1.4808    1.0000 </r>
       <r>    1.6741    1.0000 </r>
       <r>    2.3212    1.0000 </r>
       <r>    2.4394    1.0000 </r>
       <r>    2.6342    1.0000 </r>
       <r>    3.1239    1.0000 </r>
       <r>    3.4727    1.0000 </r>
       <r>    3.8936    1.0000 </r>
       <r>    4.4236    1.0000 </r>
       <r>    6.9800    0.0000 </r>
       <r>    7.4385    0.0000 </r>
       <r>    8.3412    0.0000 </r>
       <r>    8.6332    0.0000 </r>
       <r>    9.2288    0.0000 </r>
       <r>    9.4748    0.0000 </r>
       <r>    9.5629    0.0000 </r>
       <r>   10.0917    0.0000 </r>
       <r>   10.1739    0.0000 </r>
      </set>
      <set comment="kpoint 9">
       <r>   -5.8873    1.0000 </r>
       <r>   -4.1089    1.0000 </r>
       <r>   -2.3449    1.0000 </r>
       <r>   -2.0738    1.0000 </r>
       <r>   -2.0428    1.0000 </r>
       <r>   -1.6909    1.0000 </r>
       <r>    0.2018    1.0000 </r>
       <r>    1.9831    1.0000 </r>
       <r>    2.1138    1.0000 </r>
       <r>    2.2030    1.0000 </r>
       <r>    2.3207    1.0000 </r>
       <r>    3.1678    1.0000 </r>
       <r>    3.1921    1.0000 </r>
       <r>    3.9499    1.0000 </r>
       <r>    4.7151    1.0000 </r>
       <r>    4.7915    1.0000 </r>
       <r>    6.2793    0.0134 </r>
       <r>    7.1770    0.0000 </r>
       <r>    7.4780    0.0000 </r>
       <r>    7.7031    0.0000 </r>
       <r>    7.9016    0.0000 </r>
       <r>    8.0143    0.0000 </r>
       <r>    8.1991    0.0000 </r>
       <r>    9.6049    0.0000 </r>
       <r>   12.9120    0.0000 </r>
      </set>
      <set comment="kpoint 10">
       <r>   -5.8046    1.0000 </r>
       <r>   -4.0482    1.0000 </r>
       <r>   -2.9804    1.0000 </r>
       <r>   -2.3816    1.0000 </r>
       <r>   -1.7223    1.0000 </r>
       <r>   -1.0395    1.0000 </r>
       <r>    0.1181    1.0000 </r>
       <r>    1.6060    1.0000 </r>
       <r>    2.0141    1.0000 </r>
       <r>    2.4666    1.0000 </r>
       <r>    2.7480    1.0000 </r>
       <r>    3.0019    1.0000 </r>
       <r>    3.1347    1.0000 </r>
       <r>    3.4243    1.0000 </r>
       <r>    4.3729    1.0000 </r>
       <r>    5.1748    1.0000 </r>
       <r>    6.7395    0.0000 </r>
       <r>    7.0328    0.0000 </r>
       <r>    7.7468    0.0000 </r>
       <r>    7.7711    0.0000 </r>
       <r>    7.9769    0.0000 </r>
       <r>    8.2307    0.0000 </r>
       <r>    8.9725    0.0000 </r>
       <r>    9.1431    0.0000 </r>
       <r>    9.4617    0.0000 </r>
      </set>
      <set comment="kpoint 11">
       <r>   -5.5613    1.0000 </r>
       <r>   -3.9401    1.0000 </r>
       <r>   -3.7042    1.0000 </r>
       <r>   -2.7149    1.0000 </r>
       <r>   -1.3847    1.0000 </r>
       <r>   -0.3157    1.0000 </r>
       <r>    0.0293    1.0000 </r>
       <r>    1.3348    1.0000 </r>
       <r>    2.0877    1.0000 </r>
       <r>    2.2414    1.0000 </r>
       <r>    2.5893    1.0000 </r>
       <r>    2.9958    1.0000 </r>
       <r>    3.1448    1.0000 </r>
       <r>    3.4151    1.0000 </r>
       <r>    3.7852    1.0000 </r>
       <r>    5.2863    1.0000 </r>
       <r>    6.9362    0.0000 </r>
       <r>    7.7346    0.0000 </r>
       <r>    8.0432    0.0000 </r>
       <r>    8.4748    0.0000 </r>
       <r>    8.6539    0.0000 </r>
       <r>    8.7967    0.0000 </r>
       <r>    9.2125    0.0000 </r>
       <r>   10.5576    0.0000 </r>
       <r>   11.0657    0.0000 </r>
      </set>
      <set comment="kpoint 12">
       <r>   -5.1941    1.0000 </r>
       <r>   -4.4687    1.0000 </r>
       <r>   -3.5808    1.0000 </r>
       <r>   -3.0509    1.0000 </r>
       <r>   -0.9973    1.0000 </r>
       <r>   -0.5766    1.0000 </r>
       <r>    0.7766    1.0000 </r>
       <r>    1.3738    1.0000 </r>
       <r>    1.6067    1.0000 </r>
       <r>    1.7153    1.0000 </r>
       <r>    2.5575    1.0000 </r>
       <r>    3.0244    1.0000 </r>
       <r>    3.2026    1.0000 </r>
       <r>    3.4680    1.0000 </r>
       <r>    3.9380    1.0000 </r>
       <r>    4.7546    1.0000 </r>
       <r>    7.6626    0.0000 </r>
       <r>    8.0730    0.0000 </r>
       <r>    8.5311    0.0000 </r>
       <r>    8.8929    0.0000 </r>
       <r>    8.9964    0.0000 </r>
       <r>    9.3931    0.0000 </r>
       <r>    9.5262    0.0000 </r>
       <r>    9.7862    0.0000 </r>
       <r>   10.1341    0.0000 </r>
      </set>
      <set comment="kpoint 13">
       <r>   -5.4557    1.0000 </r>
       <r>   -4.8574    1.0000 </r>
       <r>   -2.2834    1.0000 </r>
       <r>   -2.0226    1.0000 </r>
       <r>   -1.9875    1.0000 </r>
       <r>   -1.6392    1.0000 </r>
       <r>    1.3714    1.0000 </r>
       <r>    1.7158    1.0000 </r>
       <r>    1.8598    1.0000 </r>
       <r>    1.9230    1.0000 </r>
       <r>    2.0431    1.0000 </r>
       <r>    2.7417    1.0000 </r>
       <r>    3.5697    1.0000 </r>
       <r>    3.5948    1.0000 </r>
       <r>    4.0984    1.0000 </r>
       <r>    4.1367    1.0000 </r>
       <r>    6.5544    0.0000 </r>
       <r>    6.9721    0.0000 </r>
       <r>    8.1336    0.0000 </r>
       <r>    9.0395    0.0000 </r>
       <r>    9.1656    0.0000 </r>
       <r>    9.2986    0.0000 </r>
       <r>    9.4017    0.0000 </r>
       <r>    9.6118    0.0000 </r>
       <r>   10.7421    0.0000 </r>
      </set>
      <set comment="kpoint 14">
       <r>   -5.3768    1.0000 </r>
       <r>   -4.7842    1.0000 </r>
       <r>   -2.7775    1.0000 </r>
       <r>   -2.5597    1.0000 </r>
       <r>   -1.4654    1.0000 </r>
       <r>   -1.1949    1.0000 </r>
       <r>    1.1468    1.0000 </r>
       <r>    1.5338    1.0000 </r>
       <r>    1.5895    1.0000 </r>
       <r>    2.2879    1.0000 </r>
       <r>    2.4818    1.0000 </r>
       <r>    2.5844    1.0000 </r>
       <r>    3.2566    1.0000 </r>
       <r>    3.6585    1.0000 </r>
       <r>    3.8042    1.0000 </r>
       <r>    4.4179    1.0000 </r>
       <r>    7.0399    0.0000 </r>
       <r>    7.4341    0.0000 </r>
       <r>    8.2065    0.0000 </r>
       <r>    8.6541    0.0000 </r>
       <r>    9.1369    0.0000 </r>
       <r>    9.3172    0.0000 </r>
       <r>    9.5589    0.0000 </r>
       <r>   10.1219    0.0000 </r>
       <r>   10.3003    0.0000 </r>
      </set>
      <set comment="kpoint 15">
       <r>   -5.1459    1.0000 </r>
       <r>   -4.5726    1.0000 </r>
       <r>   -3.4785    1.0000 </r>
       <r>   -3.1056    1.0000 </r>
       <r>   -0.9790    1.0000 </r>
       <r>   -0.5452    1.0000 </r>
       <r>    0.7112    1.0000 </r>
       <r>    1.4001    1.0000 </r>
       <r>    1.4588    1.0000 </r>
       <r>    1.8458    1.0000 </r>
       <r>    2.5512    1.0000 </r>
       <r>    2.9581    1.0000 </r>
       <r>    3.3071    1.0000 </r>
       <r>    3.4705    1.0000 </r>
       <r>    3.9449    1.0000 </r>
       <r>    4.7629    1.0000 </r>
       <r>    7.6224    0.0000 </r>
       <r>    8.1302    0.0000 </r>
       <r>    8.5351    0.0000 </r>
       <r>    8.9263    0.0000 </r>
       <r>    8.9671    0.0000 </r>
       <r>    9.3450    0.0000 </r>
       <r>    9.4709    0.0000 </r>
       <r>    9.7802    0.0000 </r>
       <r>   12.2145    0.0000 </r>
      </set>
      <set comment="kpoint 16">
       <r>   -4.8064    1.0000 </r>
       <r>   -4.2817    1.0000 </r>
       <r>   -4.0564    1.0000 </r>
       <r>   -3.5969    1.0000 </r>
       <r>   -0.4674    1.0000 </r>
       <r>   -0.0439    1.0000 </r>
       <r>    0.3199    1.0000 </r>
       <r>    0.8679    1.0000 </r>
       <r>    1.5621    1.0000 </r>
       <r>    1.9342    1.0000 </r>
       <r>    2.0423    1.0000 </r>
       <r>    2.4576    1.0000 </r>
       <r>    3.9157    1.0000 </r>
       <r>    4.0726    1.0000 </r>
       <r>    4.2182    1.0000 </r>
       <r>    4.7364    1.0000 </r>
       <r>    7.6302    0.0000 </r>
       <r>    8.2878    0.0000 </r>
       <r>    8.3442    0.0000 </r>
       <r>    8.4798    0.0000 </r>
       <r>    9.3914    0.0000 </r>
       <r>    9.7728    0.0000 </r>
       <r>    9.8170    0.0000 </r>
       <r>   10.0801    0.0000 </r>
       <r>   10.7297    0.0000 </r>
      </set>
      <set comment="kpoint 17">
       <r>   -6.0646    1.0000 </r>
       <r>   -3.2214    1.0000 </r>
       <r>   -3.0566    1.0000 </r>
       <r>   -2.4015    1.0000 </r>
       <r>   -1.7100    1.0000 </r>
       <r>   -1.1505    1.0000 </r>
       <r>   -0.9702    1.0000 </r>
       <r>    2.0706    1.0000 </r>
       <r>    2.6324    1.0000 </r>
       <r>    2.6475    1.0000 </r>
       <r>    2.6915    1.0000 </r>
       <r>    2.8270    1.0000 </r>
       <r>    2.9608    1.0000 </r>
       <r>    4.6399    1.0000 </r>
       <r>    4.9823    1.0000 </r>
       <r>    5.2641    1.0000 </r>
       <r>    6.3234    0.0058 </r>
       <r>    6.5099    0.0001 </r>
       <r>    6.7485    0.0000 </r>
       <r>    7.0025    0.0000 </r>
       <r>    7.3791    0.0000 </r>
       <r>    7.8956    0.0000 </r>
       <r>    8.3899    0.0000 </r>
       <r>    8.5401    0.0000 </r>
       <r>    9.9882    0.0000 </r>
      </set>
      <set comment="kpoint 18">
       <r>   -5.9808    1.0000 </r>
       <r>   -3.2181    1.0000 </r>
       <r>   -3.1847    1.0000 </r>
       <r>   -2.8437    1.0000 </r>
       <r>   -1.1914    1.0000 </r>
       <r>   -1.1756    1.0000 </r>
       <r>   -0.8174    1.0000 </r>
       <r>    2.1224    1.0000 </r>
       <r>    2.1810    1.0000 </r>
       <r>    2.3627    1.0000 </r>
       <r>    2.8504    1.0000 </r>
       <r>    3.0226    1.0000 </r>
       <r>    3.1344    1.0000 </r>
       <r>    3.8745    1.0000 </r>
       <r>    5.0430    1.0000 </r>
       <r>    5.4214    0.9999 </r>
       <r>    6.3909    0.0013 </r>
       <r>    6.4641    0.0002 </r>
       <r>    6.7309    0.0000 </r>
       <r>    7.6789    0.0000 </r>
       <r>    7.9543    0.0000 </r>
       <r>    8.0460    0.0000 </r>
       <r>    8.0964    0.0000 </r>
       <r>    8.6605    0.0000 </r>
       <r>    8.8774    0.0000 </r>
      </set>
      <set comment="kpoint 19">
       <r>   -5.7340    1.0000 </r>
       <r>   -3.9564    1.0000 </r>
       <r>   -3.0944    1.0000 </r>
       <r>   -2.8059    1.0000 </r>
       <r>   -1.2480    1.0000 </r>
       <r>   -1.2084    1.0000 </r>
       <r>    0.0733    1.0000 </r>
       <r>    1.8118    1.0000 </r>
       <r>    1.9126    1.0000 </r>
       <r>    2.5572    1.0000 </r>
       <r>    2.9209    1.0000 </r>
       <r>    2.9571    1.0000 </r>
       <r>    3.0522    1.0000 </r>
       <r>    3.1051    1.0000 </r>
       <r>    4.5607    1.0000 </r>
       <r>    5.0912    1.0000 </r>
       <r>    6.6788    0.0000 </r>
       <r>    7.0690    0.0000 </r>
       <r>    7.3502    0.0000 </r>
       <r>    7.9966    0.0000 </r>
       <r>    8.4129    0.0000 </r>
       <r>    8.6324    0.0000 </r>
       <r>    9.1063    0.0000 </r>
       <r>    9.2743    0.0000 </r>
       <r>   11.9786    0.0000 </r>
      </set>
      <set comment="kpoint 20">
       <r>   -5.3599    1.0000 </r>
       <r>   -4.6223    1.0000 </r>
       <r>   -3.0119    1.0000 </r>
       <r>   -2.6989    1.0000 </r>
       <r>   -1.3253    1.0000 </r>
       <r>   -1.3249    1.0000 </r>
       <r>    1.0192    1.0000 </r>
       <r>    1.6522    1.0000 </r>
       <r>    1.8135    1.0000 </r>
       <r>    1.9617    1.0000 </r>
       <r>    2.7141    1.0000 </r>
       <r>    2.7680    1.0000 </r>
       <r>    3.3703    1.0000 </r>
       <r>    3.3704    1.0000 </r>
       <r>    4.0922    1.0000 </r>
       <r>    4.2524    1.0000 </r>
       <r>    7.0400    0.0000 </r>
       <r>    7.6163    0.0000 </r>
       <r>    8.3224    0.0000 </r>
       <r>    8.5418    0.0000 </r>
       <r>    9.1113    0.0000 </r>
       <r>    9.4340    0.0000 </r>
       <r>    9.9706    0.0000 </r>
       <r>   10.0749    0.0000 </r>
       <r>   10.3028    0.0000 </r>
      </set>
      <set comment="kpoint 21">
       <r>   -5.8081    1.0000 </r>
       <r>   -4.0235    1.0000 </r>
       <r>   -2.9452    1.0000 </r>
       <r>   -2.5268    1.0000 </r>
       <r>   -1.4967    1.0000 </r>
       <r>   -1.1864    1.0000 </r>
       <r>    0.0229    1.0000 </r>
       <r>    1.6458    1.0000 </r>
       <r>    2.1118    1.0000 </r>
       <r>    2.5429    1.0000 </r>
       <r>    2.7125    1.0000 </r>
       <r>    2.8765    1.0000 </r>
       <r>    3.2359    1.0000 </r>
       <r>    3.6700    1.0000 </r>
       <r>    4.3490    1.0000 </r>
       <r>    4.8666    1.0000 </r>
       <r>    6.7330    0.0000 </r>
       <r>    6.9168    0.0000 </r>
       <r>    7.5385    0.0000 </r>
       <r>    7.8685    0.0000 </r>
       <r>    7.9772    0.0000 </r>
       <r>    8.3852    0.0000 </r>
       <r>    8.8874    0.0000 </r>
       <r>    9.2706    0.0000 </r>
       <r>   11.9970    0.0000 </r>
      </set>
      <set comment="kpoint 22">
       <r>   -5.7266    1.0000 </r>
       <r>   -3.9664    1.0000 </r>
       <r>   -3.0911    1.0000 </r>
       <r>   -2.8554    1.0000 </r>
       <r>   -1.2821    1.0000 </r>
       <r>   -0.9877    1.0000 </r>
       <r>   -0.1026    1.0000 </r>
       <r>    1.7603    1.0000 </r>
       <r>    1.8963    1.0000 </r>
       <r>    2.6191    1.0000 </r>
       <r>    2.7986    1.0000 </r>
       <r>    2.9822    1.0000 </r>
       <r>    3.0593    1.0000 </r>
       <r>    3.3455    1.0000 </r>
       <r>    4.6554    1.0000 </r>
       <r>    4.9196    1.0000 </r>
       <r>    6.7640    0.0000 </r>
       <r>    6.9895    0.0000 </r>
       <r>    7.2423    0.0000 </r>
       <r>    7.9884    0.0000 </r>
       <r>    8.2892    0.0000 </r>
       <r>    8.7654    0.0000 </r>
       <r>    9.1910    0.0000 </r>
       <r>    9.4838    0.0000 </r>
       <r>   10.9055    0.0000 </r>
      </set>
      <set comment="kpoint 23">
       <r>   -5.4874    1.0000 </r>
       <r>   -3.8820    1.0000 </r>
       <r>   -3.6858    1.0000 </r>
       <r>   -2.9538    1.0000 </r>
       <r>   -1.3147    1.0000 </r>
       <r>   -0.5432    1.0000 </r>
       <r>   -0.1890    1.0000 </r>
       <r>    1.6897    1.0000 </r>
       <r>    1.9550    1.0000 </r>
       <r>    2.3245    1.0000 </r>
       <r>    2.5497    1.0000 </r>
       <r>    3.1122    1.0000 </r>
       <r>    3.2684    1.0000 </r>
       <r>    3.4824    1.0000 </r>
       <r>    4.1823    1.0000 </r>
       <r>    5.1932    1.0000 </r>
       <r>    6.9944    0.0000 </r>
       <r>    7.2762    0.0000 </r>
       <r>    7.5457    0.0000 </r>
       <r>    7.9649    0.0000 </r>
       <r>    8.8354    0.0000 </r>
       <r>    9.3089    0.0000 </r>
       <r>    9.4984    0.0000 </r>
       <r>    9.7290    0.0000 </r>
       <r>   10.5691    0.0000 </r>
      </set>
      <set comment="kpoint 24">
       <r>   -5.1281    1.0000 </r>
       <r>   -4.4175    1.0000 </r>
       <r>   -3.5598    1.0000 </r>
       <r>   -3.0986    1.0000 </r>
       <r>   -1.2189    1.0000 </r>
       <r>   -0.8670    1.0000 </r>
       <r>    0.4499    1.0000 </r>
       <r>    1.2247    1.0000 </r>
       <r>    1.7914    1.0000 </r>
       <r>    2.1777    1.0000 </r>
       <r>    2.9048    1.0000 </r>
       <r>    3.2748    1.0000 </r>
       <r>    3.4231    1.0000 </r>
       <r>    3.5599    1.0000 </r>
       <r>    3.9223    1.0000 </r>
       <r>    4.6710    1.0000 </r>
       <r>    7.6029    0.0000 </r>
       <r>    7.7875    0.0000 </r>
       <r>    8.2168    0.0000 </r>
       <r>    8.6186    0.0000 </r>
       <r>    8.8775    0.0000 </r>
       <r>    9.1183    0.0000 </r>
       <r>    9.6292    0.0000 </r>
       <r>   10.0017    0.0000 </r>
       <r>   10.2590    0.0000 </r>
      </set>
      <set comment="kpoint 25">
       <r>   -5.3838    1.0000 </r>
       <r>   -4.7675    1.0000 </r>
       <r>   -2.7285    1.0000 </r>
       <r>   -2.6475    1.0000 </r>
       <r>   -1.3978    1.0000 </r>
       <r>   -1.2401    1.0000 </r>
       <r>    1.0670    1.0000 </r>
       <r>    1.4885    1.0000 </r>
       <r>    1.6697    1.0000 </r>
       <r>    2.3895    1.0000 </r>
       <r>    2.5102    1.0000 </r>
       <r>    2.5967    1.0000 </r>
       <r>    3.2722    1.0000 </r>
       <r>    3.7054    1.0000 </r>
       <r>    3.8630    1.0000 </r>
       <r>    4.1847    1.0000 </r>
       <r>    7.0106    0.0000 </r>
       <r>    7.4959    0.0000 </r>
       <r>    8.1219    0.0000 </r>
       <r>    8.4558    0.0000 </r>
       <r>    9.2500    0.0000 </r>
       <r>    9.4276    0.0000 </r>
       <r>    9.6241    0.0000 </r>
       <r>    9.9788    0.0000 </r>
       <r>   10.1397    0.0000 </r>
      </set>
      <set comment="kpoint 26">
       <r>   -5.3069    1.0000 </r>
       <r>   -4.6960    1.0000 </r>
       <r>   -2.9817    1.0000 </r>
       <r>   -2.7974    1.0000 </r>
       <r>   -1.3643    1.0000 </r>
       <r>   -1.0504    1.0000 </r>
       <r>    0.8171    1.0000 </r>
       <r>    1.5824    1.0000 </r>
       <r>    1.6545    1.0000 </r>
       <r>    2.1112    1.0000 </r>
       <r>    2.6357    1.0000 </r>
       <r>    2.8114    1.0000 </r>
       <r>    3.4152    1.0000 </r>
       <r>    3.6959    1.0000 </r>
       <r>    3.9394    1.0000 </r>
       <r>    4.2548    1.0000 </r>
       <r>    7.1872    0.0000 </r>
       <r>    7.6380    0.0000 </r>
       <r>    8.1748    0.0000 </r>
       <r>    8.4469    0.0000 </r>
       <r>    8.9763    0.0000 </r>
       <r>    9.5055    0.0000 </r>
       <r>    9.8264    0.0000 </r>
       <r>   10.0657    0.0000 </r>
       <r>   10.2170    0.0000 </r>
      </set>
      <set comment="kpoint 27">
       <r>   -5.0827    1.0000 </r>
       <r>   -4.4906    1.0000 </r>
       <r>   -3.5253    1.0000 </r>
       <r>   -3.1521    1.0000 </r>
       <r>   -1.1990    1.0000 </r>
       <r>   -0.6652    1.0000 </r>
       <r>    0.2842    1.0000 </r>
       <r>    1.2120    1.0000 </r>
       <r>    1.7781    1.0000 </r>
       <r>    2.0122    1.0000 </r>
       <r>    3.0228    1.0000 </r>
       <r>    3.2013    1.0000 </r>
       <r>    3.5036    1.0000 </r>
       <r>    3.6460    1.0000 </r>
       <r>    3.8751    1.0000 </r>
       <r>    4.7322    1.0000 </r>
       <r>    7.6159    0.0000 </r>
       <r>    7.9240    0.0000 </r>
       <r>    8.1228    0.0000 </r>
       <r>    8.4882    0.0000 </r>
       <r>    9.0255    0.0000 </r>
       <r>    9.1459    0.0000 </r>
       <r>    9.5936    0.0000 </r>
       <r>    9.9438    0.0000 </r>
       <r>   11.1138    0.0000 </r>
      </set>
      <set comment="kpoint 28">
       <r>   -4.7565    1.0000 </r>
       <r>   -4.2199    1.0000 </r>
       <r>   -4.0330    1.0000 </r>
       <r>   -3.5618    1.0000 </r>
       <r>   -0.8821    1.0000 </r>
       <r>   -0.3832    1.0000 </r>
       <r>   -0.0684    1.0000 </r>
       <r>    0.5363    1.0000 </r>
       <r>    2.0618    1.0000 </r>
       <r>    2.3486    1.0000 </r>
       <r>    2.6227    1.0000 </r>
       <r>    2.9582    1.0000 </r>
       <r>    3.9418    1.0000 </r>
       <r>    4.0997    1.0000 </r>
       <r>    4.2087    1.0000 </r>
       <r>    4.7481    1.0000 </r>
       <r>    7.6773    0.0000 </r>
       <r>    8.1548    0.0000 </r>
       <r>    8.3485    0.0000 </r>
       <r>    8.4462    0.0000 </r>
       <r>    8.7853    0.0000 </r>
       <r>    9.1235    0.0000 </r>
       <r>    9.4152    0.0000 </r>
       <r>    9.5904    0.0000 </r>
       <r>   10.6407    0.0000 </r>
      </set>
      <set comment="kpoint 29">
       <r>   -5.3646    1.0000 </r>
       <r>   -4.7968    1.0000 </r>
       <r>   -2.8734    1.0000 </r>
       <r>   -2.4207    1.0000 </r>
       <r>   -1.6468    1.0000 </r>
       <r>   -1.0397    1.0000 </r>
       <r>    1.2969    1.0000 </r>
       <r>    1.3663    1.0000 </r>
       <r>    1.7589    1.0000 </r>
       <r>    2.1721    1.0000 </r>
       <r>    2.3118    1.0000 </r>
       <r>    2.6860    1.0000 </r>
       <r>    3.2134    1.0000 </r>
       <r>    3.5499    1.0000 </r>
       <r>    3.7904    1.0000 </r>
       <r>    4.5944    1.0000 </r>
       <r>    7.0892    0.0000 </r>
       <r>    7.4150    0.0000 </r>
       <r>    8.4250    0.0000 </r>
       <r>    8.5091    0.0000 </r>
       <r>    9.2119    0.0000 </r>
       <r>    9.4050    0.0000 </r>
       <r>    9.4263    0.0000 </r>
       <r>   10.0472    0.0000 </r>
       <r>   10.1557    0.0000 </r>
      </set>
      <set comment="kpoint 30">
       <r>   -5.2865    1.0000 </r>
       <r>   -4.7272    1.0000 </r>
       <r>   -2.9804    1.0000 </r>
       <r>   -2.8070    1.0000 </r>
       <r>   -1.3477    1.0000 </r>
       <r>   -1.0262    1.0000 </r>
       <r>    1.0431    1.0000 </r>
       <r>    1.4617    1.0000 </r>
       <r>    1.6546    1.0000 </r>
       <r>    1.8645    1.0000 </r>
       <r>    2.6598    1.0000 </r>
       <r>    2.8536    1.0000 </r>
       <r>    3.1611    1.0000 </r>
       <r>    3.7007    1.0000 </r>
       <r>    4.1227    1.0000 </r>
       <r>    4.3738    1.0000 </r>
       <r>    7.2116    0.0000 </r>
       <r>    7.6563    0.0000 </r>
       <r>    8.3433    0.0000 </r>
       <r>    8.6045    0.0000 </r>
       <r>    9.0346    0.0000 </r>
       <r>    9.3621    0.0000 </r>
       <r>    9.6560    0.0000 </r>
       <r>    9.8918    0.0000 </r>
       <r>   10.4116    0.0000 </r>
      </set>
      <set comment="kpoint 31">
       <r>   -5.0588    1.0000 </r>
       <r>   -4.5276    1.0000 </r>
       <r>   -3.4423    1.0000 </r>
       <r>   -3.2707    1.0000 </r>
       <r>   -0.9556    1.0000 </r>
       <r>   -0.8421    1.0000 </r>
       <r>    0.4906    1.0000 </r>
       <r>    1.0207    1.0000 </r>
       <r>    1.6749    1.0000 </r>
       <r>    2.0035    1.0000 </r>
       <r>    2.7569    1.0000 </r>
       <r>    3.3143    1.0000 </r>
       <r>    3.4858    1.0000 </r>
       <r>    3.7917    1.0000 </r>
       <r>    4.0616    1.0000 </r>
       <r>    4.6354    1.0000 </r>
       <r>    7.6677    0.0000 </r>
       <r>    7.8771    0.0000 </r>
       <r>    8.2804    0.0000 </r>
       <r>    8.7296    0.0000 </r>
       <r>    8.8953    0.0000 </r>
       <r>    9.0531    0.0000 </r>
       <r>    9.6890    0.0000 </r>
       <r>    9.9970    0.0000 </r>
       <r>   10.1351    0.0000 </r>
      </set>
      <set comment="kpoint 32">
       <r>   -4.7272    1.0000 </r>
       <r>   -4.2525    1.0000 </r>
       <r>   -4.0012    1.0000 </r>
       <r>   -3.6351    1.0000 </r>
       <r>   -0.6550    1.0000 </r>
       <r>   -0.4009    1.0000 </r>
       <r>   -0.0436    1.0000 </r>
       <r>    0.3796    1.0000 </r>
       <r>    1.8838    1.0000 </r>
       <r>    2.3576    1.0000 </r>
       <r>    2.5136    1.0000 </r>
       <r>    3.0876    1.0000 </r>
       <r>    3.9865    1.0000 </r>
       <r>    4.1325    1.0000 </r>
       <r>    4.2927    1.0000 </r>
       <r>    4.7098    1.0000 </r>
       <r>    7.6972    0.0000 </r>
       <r>    8.1879    0.0000 </r>
       <r>    8.2351    0.0000 </r>
       <r>    8.4349    0.0000 </r>
       <r>    9.0582    0.0000 </r>
       <r>    9.2371    0.0000 </r>
       <r>    9.4946    0.0000 </r>
       <r>    9.7929    0.0000 </r>
       <r>   10.3923    0.0000 </r>
      </set>
      <set comment="kpoint 33">
       <r>   -5.7962    1.0000 </r>
       <r>   -4.0694    1.0000 </r>
       <r>   -3.0400    1.0000 </r>
       <r>   -2.2032    1.0000 </r>
       <r>   -1.9069    1.0000 </r>
       <r>   -0.9332    1.0000 </r>
       <r>    0.2103    1.0000 </r>
       <r>    1.4626    1.0000 </r>
       <r>    2.1158    1.0000 </r>
       <r>    2.3830    1.0000 </r>
       <r>    2.8318    1.0000 </r>
       <r>    2.9547    1.0000 </r>
       <r>    3.0624    1.0000 </r>
       <r>    3.2262    1.0000 </r>
       <r>    4.4138    1.0000 </r>
       <r>    5.3911    1.0000 </r>
       <r>    6.8029    0.0000 </r>
       <r>    7.2510    0.0000 </r>
       <r>    7.5195    0.0000 </r>
       <r>    7.8827    0.0000 </r>
       <r>    7.9855    0.0000 </r>
       <r>    8.2889    0.0000 </r>
       <r>    8.8515    0.0000 </r>
       <r>    9.0895    0.0000 </r>
       <r>    9.4869    0.0000 </r>
      </set>
      <set comment="kpoint 34">
       <r>   -5.7141    1.0000 </r>
       <r>   -4.0159    1.0000 </r>
       <r>   -3.0692    1.0000 </r>
       <r>   -2.8884    1.0000 </r>
       <r>   -1.2532    1.0000 </r>
       <r>   -0.9279    1.0000 </r>
       <r>    0.0899    1.0000 </r>
       <r>    1.6163    1.0000 </r>
       <r>    1.7622    1.0000 </r>
       <r>    2.4440    1.0000 </r>
       <r>    2.6970    1.0000 </r>
       <r>    2.9583    1.0000 </r>
       <r>    3.0916    1.0000 </r>
       <r>    3.3379    1.0000 </r>
       <r>    4.7124    1.0000 </r>
       <r>    5.1865    1.0000 </r>
       <r>    6.8106    0.0000 </r>
       <r>    7.1842    0.0000 </r>
       <r>    7.3704    0.0000 </r>
       <r>    8.1093    0.0000 </r>
       <r>    8.2972    0.0000 </r>
       <r>    8.6474    0.0000 </r>
       <r>    8.9545    0.0000 </r>
       <r>    9.2671    0.0000 </r>
       <r>   11.5574    0.0000 </r>
      </set>
      <set comment="kpoint 35">
       <r>   -5.4728    1.0000 </r>
       <r>   -3.9150    1.0000 </r>
       <r>   -3.6568    1.0000 </r>
       <r>   -3.0794    1.0000 </r>
       <r>   -1.0540    1.0000 </r>
       <r>   -0.4919    1.0000 </r>
       <r>   -0.1515    1.0000 </r>
       <r>    1.5260    1.0000 </r>
       <r>    1.7873    1.0000 </r>
       <r>    2.1371    1.0000 </r>
       <r>    2.2945    1.0000 </r>
       <r>    3.2814    1.0000 </r>
       <r>    3.4410    1.0000 </r>
       <r>    3.4983    1.0000 </r>
       <r>    4.3855    1.0000 </r>
       <r>    5.1451    1.0000 </r>
       <r>    7.0358    0.0000 </r>
       <r>    7.4463    0.0000 </r>
       <r>    7.6300    0.0000 </r>
       <r>    8.0705    0.0000 </r>
       <r>    8.9870    0.0000 </r>
       <r>    9.2057    0.0000 </r>
       <r>    9.4396    0.0000 </r>
       <r>    9.6016    0.0000 </r>
       <r>   11.8814    0.0000 </r>
      </set>
      <set comment="kpoint 36">
       <r>   -5.1098    1.0000 </r>
       <r>   -4.3910    1.0000 </r>
       <r>   -3.6321    1.0000 </r>
       <r>   -3.2000    1.0000 </r>
       <r>   -0.9554    1.0000 </r>
       <r>   -0.6608    1.0000 </r>
       <r>    0.3195    1.0000 </r>
       <r>    1.0928    1.0000 </r>
       <r>    1.5675    1.0000 </r>
       <r>    1.9158    1.0000 </r>
       <r>    2.9020    1.0000 </r>
       <r>    3.3816    1.0000 </r>
       <r>    3.5388    1.0000 </r>
       <r>    3.6031    1.0000 </r>
       <r>    4.0413    1.0000 </r>
       <r>    4.7022    1.0000 </r>
       <r>    7.7464    0.0000 </r>
       <r>    7.9170    0.0000 </r>
       <r>    8.2760    0.0000 </r>
       <r>    8.6167    0.0000 </r>
       <r>    9.0404    0.0000 </r>
       <r>    9.1703    0.0000 </r>
       <r>    9.6603    0.0000 </r>
       <r>    9.9537    0.0000 </r>
       <r>    9.9950    0.0000 </r>
      </set>
      <set comment="kpoint 37">
       <r>   -6.0590    1.0000 </r>
       <r>   -3.3310    1.0000 </r>
       <r>   -3.0298    1.0000 </r>
       <r>   -2.1353    1.0000 </r>
       <r>   -2.0476    1.0000 </r>
       <r>   -0.9619    1.0000 </r>
       <r>   -0.8883    1.0000 </r>
       <r>    1.8626    1.0000 </r>
       <r>    2.5783    1.0000 </r>
       <r>    2.5814    1.0000 </r>
       <r>    2.7370    1.0000 </r>
       <r>    2.8142    1.0000 </r>
       <r>    3.0711    1.0000 </r>
       <r>    4.1290    1.0000 </r>
       <r>    5.0342    1.0000 </r>
       <r>    5.8670    0.7585 </r>
       <r>    6.5972    0.0000 </r>
       <r>    6.6725    0.0000 </r>
       <r>    6.7114    0.0000 </r>
       <r>    7.0340    0.0000 </r>
       <r>    7.3210    0.0000 </r>
       <r>    7.6314    0.0000 </r>
       <r>    8.2126    0.0000 </r>
       <r>    8.5241    0.0000 </r>
       <r>    8.6967    0.0000 </r>
      </set>
      <set comment="kpoint 38">
       <r>   -5.9749    1.0000 </r>
       <r>   -3.3498    1.0000 </r>
       <r>   -2.9882    1.0000 </r>
       <r>   -2.9797    1.0000 </r>
       <r>   -1.2495    1.0000 </r>
       <r>   -0.9162    1.0000 </r>
       <r>   -0.8188    1.0000 </r>
       <r>    1.9532    1.0000 </r>
       <r>    2.1418    1.0000 </r>
       <r>    2.1443    1.0000 </r>
       <r>    3.0388    1.0000 </r>
       <r>    3.0419    1.0000 </r>
       <r>    3.1804    1.0000 </r>
       <r>    3.6150    1.0000 </r>
       <r>    5.2058    1.0000 </r>
       <r>    5.5567    0.9981 </r>
       <r>    6.4797    0.0001 </r>
       <r>    6.6709    0.0000 </r>
       <r>    6.7628    0.0000 </r>
       <r>    7.6777    0.0000 </r>
       <r>    7.8077    0.0000 </r>
       <r>    7.9618    0.0000 </r>
       <r>    8.2348    0.0000 </r>
       <r>    8.5892    0.0000 </r>
       <r>    8.8743    0.0000 </r>
      </set>
      <set comment="kpoint 39">
       <r>   -5.7272    1.0000 </r>
       <r>   -3.9397    1.0000 </r>
       <r>   -3.1588    1.0000 </r>
       <r>   -2.8846    1.0000 </r>
       <r>   -1.1306    1.0000 </r>
       <r>   -1.0019    1.0000 </r>
       <r>    0.0266    1.0000 </r>
       <r>    1.6587    1.0000 </r>
       <r>    1.7584    1.0000 </r>
       <r>    2.3419    1.0000 </r>
       <r>    2.8170    1.0000 </r>
       <r>    3.0094    1.0000 </r>
       <r>    3.0639    1.0000 </r>
       <r>    3.3491    1.0000 </r>
       <r>    4.8345    1.0000 </r>
       <r>    4.9571    1.0000 </r>
       <r>    6.9464    0.0000 </r>
       <r>    7.1042    0.0000 </r>
       <r>    7.2913    0.0000 </r>
       <r>    7.9709    0.0000 </r>
       <r>    8.3262    0.0000 </r>
       <r>    8.8231    0.0000 </r>
       <r>    9.0803    0.0000 </r>
       <r>    9.3210    0.0000 </r>
       <r>    9.3939    0.0000 </r>
      </set>
      <set comment="kpoint 40">
       <r>   -5.3513    1.0000 </r>
       <r>   -4.6097    1.0000 </r>
       <r>   -3.1017    1.0000 </r>
       <r>   -2.7878    1.0000 </r>
       <r>   -1.1663    1.0000 </r>
       <r>   -1.0982    1.0000 </r>
       <r>    0.9442    1.0000 </r>
       <r>    1.4583    1.0000 </r>
       <r>    1.6041    1.0000 </r>
       <r>    1.8526    1.0000 </r>
       <r>    2.8064    1.0000 </r>
       <r>    2.9080    1.0000 </r>
       <r>    3.1252    1.0000 </r>
       <r>    3.6515    1.0000 </r>
       <r>    4.0127    1.0000 </r>
       <r>    4.4147    1.0000 </r>
       <r>    7.2649    0.0000 </r>
       <r>    7.7351    0.0000 </r>
       <r>    8.3369    0.0000 </r>
       <r>    8.5341    0.0000 </r>
       <r>    8.9569    0.0000 </r>
       <r>    9.4842    0.0000 </r>
       <r>    9.7811    0.0000 </r>
       <r>   10.0305    0.0000 </r>
       <r>   10.2286    0.0000 </r>
      </set>
      <set comment="kpoint 41">
       <r>   -5.5610    1.0000 </r>
       <r>   -3.9032    1.0000 </r>
       <r>   -3.6812    1.0000 </r>
       <r>   -2.8662    1.0000 </r>
       <r>   -1.1408    1.0000 </r>
       <r>   -0.3217    1.0000 </r>
       <r>   -0.2821    1.0000 </r>
       <r>    1.3481    1.0000 </r>
       <r>    2.1834    1.0000 </r>
       <r>    2.3485    1.0000 </r>
       <r>    2.7768    1.0000 </r>
       <r>    3.0130    1.0000 </r>
       <r>    3.1883    1.0000 </r>
       <r>    3.4428    1.0000 </r>
       <r>    3.7075    1.0000 </r>
       <r>    4.9956    1.0000 </r>
       <r>    6.7847    0.0000 </r>
       <r>    7.7798    0.0000 </r>
       <r>    7.9214    0.0000 </r>
       <r>    8.4316    0.0000 </r>
       <r>    8.6105    0.0000 </r>
       <r>    8.8341    0.0000 </r>
       <r>    9.1351    0.0000 </r>
       <r>   10.6326    0.0000 </r>
       <r>   11.1146    0.0000 </r>
      </set>
      <set comment="kpoint 42">
       <r>   -5.4830    1.0000 </r>
       <r>   -3.8628    1.0000 </r>
       <r>   -3.6421    1.0000 </r>
       <r>   -3.1107    1.0000 </r>
       <r>   -1.0179    1.0000 </r>
       <r>   -0.4999    1.0000 </r>
       <r>   -0.4838    1.0000 </r>
       <r>    1.6162    1.0000 </r>
       <r>    2.1078    1.0000 </r>
       <r>    2.3427    1.0000 </r>
       <r>    2.4090    1.0000 </r>
       <r>    3.1940    1.0000 </r>
       <r>    3.2987    1.0000 </r>
       <r>    3.5660    1.0000 </r>
       <r>    4.3484    1.0000 </r>
       <r>    4.8866    1.0000 </r>
       <r>    6.8731    0.0000 </r>
       <r>    7.3110    0.0000 </r>
       <r>    7.5642    0.0000 </r>
       <r>    7.9774    0.0000 </r>
       <r>    9.0922    0.0000 </r>
       <r>    9.1256    0.0000 </r>
       <r>    9.3830    0.0000 </r>
       <r>    9.7174    0.0000 </r>
       <r>   10.6657    0.0000 </r>
      </set>
      <set comment="kpoint 43">
       <r>   -5.2550    1.0000 </r>
       <r>   -3.7630    1.0000 </r>
       <r>   -3.7513    1.0000 </r>
       <r>   -3.4134    1.0000 </r>
       <r>   -1.0261    1.0000 </r>
       <r>   -0.8637    1.0000 </r>
       <r>   -0.5848    1.0000 </r>
       <r>    1.2199    1.0000 </r>
       <r>    2.4109    1.0000 </r>
       <r>    2.4180    1.0000 </r>
       <r>    2.7167    1.0000 </r>
       <r>    3.3814    1.0000 </r>
       <r>    3.6128    1.0000 </r>
       <r>    3.7347    1.0000 </r>
       <r>    4.6087    1.0000 </r>
       <r>    4.9416    1.0000 </r>
       <r>    7.0977    0.0000 </r>
       <r>    7.2079    0.0000 </r>
       <r>    7.4726    0.0000 </r>
       <r>    7.4976    0.0000 </r>
       <r>    8.9566    0.0000 </r>
       <r>    9.2660    0.0000 </r>
       <r>   10.3190    0.0000 </r>
       <r>   10.5041    0.0000 </r>
       <r>   10.6504    0.0000 </r>
      </set>
      <set comment="kpoint 44">
       <r>   -4.9189    1.0000 </r>
       <r>   -4.2500    1.0000 </r>
       <r>   -3.6713    1.0000 </r>
       <r>   -3.3249    1.0000 </r>
       <r>   -1.3213    1.0000 </r>
       <r>   -1.1354    1.0000 </r>
       <r>   -0.1726    1.0000 </r>
       <r>    0.5081    1.0000 </r>
       <r>    2.5095    1.0000 </r>
       <r>    2.8315    1.0000 </r>
       <r>    3.5519    1.0000 </r>
       <r>    3.5657    1.0000 </r>
       <r>    3.6654    1.0000 </r>
       <r>    3.7749    1.0000 </r>
       <r>    4.3000    1.0000 </r>
       <r>    4.5320    1.0000 </r>
       <r>    7.4627    0.0000 </r>
       <r>    7.7470    0.0000 </r>
       <r>    7.9073    0.0000 </r>
       <r>    8.1414    0.0000 </r>
       <r>    8.7263    0.0000 </r>
       <r>    9.1025    0.0000 </r>
       <r>    9.3008    0.0000 </r>
       <r>    9.4045    0.0000 </r>
       <r>   10.6230    0.0000 </r>
      </set>
      <set comment="kpoint 45">
       <r>   -5.1528    1.0000 </r>
       <r>   -4.5312    1.0000 </r>
       <r>   -3.4457    1.0000 </r>
       <r>   -3.2253    1.0000 </r>
       <r>   -0.7530    1.0000 </r>
       <r>   -0.7066    1.0000 </r>
       <r>    0.5483    1.0000 </r>
       <r>    1.3359    1.0000 </r>
       <r>    1.6902    1.0000 </r>
       <r>    1.9381    1.0000 </r>
       <r>    2.6391    1.0000 </r>
       <r>    3.0659    1.0000 </r>
       <r>    3.1908    1.0000 </r>
       <r>    3.2960    1.0000 </r>
       <r>    4.1363    1.0000 </r>
       <r>    4.5121    1.0000 </r>
       <r>    7.4905    0.0000 </r>
       <r>    8.1120    0.0000 </r>
       <r>    8.6102    0.0000 </r>
       <r>    8.8609    0.0000 </r>
       <r>    9.1222    0.0000 </r>
       <r>    9.1793    0.0000 </r>
       <r>    9.9036    0.0000 </r>
       <r>   10.2464    0.0000 </r>
       <r>   10.3062    0.0000 </r>
      </set>
      <set comment="kpoint 46">
       <r>   -5.0815    1.0000 </r>
       <r>   -4.4681    1.0000 </r>
       <r>   -3.4516    1.0000 </r>
       <r>   -3.3087    1.0000 </r>
       <r>   -0.9442    1.0000 </r>
       <r>   -0.8408    1.0000 </r>
       <r>    0.2217    1.0000 </r>
       <r>    1.2400    1.0000 </r>
       <r>    1.8220    1.0000 </r>
       <r>    2.0309    1.0000 </r>
       <r>    2.9599    1.0000 </r>
       <r>    3.2645    1.0000 </r>
       <r>    3.4180    1.0000 </r>
       <r>    3.6533    1.0000 </r>
       <r>    4.1465    1.0000 </r>
       <r>    4.4508    1.0000 </r>
       <r>    7.5505    0.0000 </r>
       <r>    7.8164    0.0000 </r>
       <r>    8.2055    0.0000 </r>
       <r>    8.6202    0.0000 </r>
       <r>    8.9453    0.0000 </r>
       <r>    9.1767    0.0000 </r>
       <r>    9.7616    0.0000 </r>
       <r>   10.0806    0.0000 </r>
       <r>   12.1857    0.0000 </r>
      </set>
      <set comment="kpoint 47">
       <r>   -4.8768    1.0000 </r>
       <r>   -4.2929    1.0000 </r>
       <r>   -3.6264    1.0000 </r>
       <r>   -3.4427    1.0000 </r>
       <r>   -1.2464    1.0000 </r>
       <r>   -0.9174    1.0000 </r>
       <r>   -0.3704    1.0000 </r>
       <r>    0.5042    1.0000 </r>
       <r>    2.5284    1.0000 </r>
       <r>    2.6080    1.0000 </r>
       <r>    3.4603    1.0000 </r>
       <r>    3.5017    1.0000 </r>
       <r>    3.8023    1.0000 </r>
       <r>    4.0579    1.0000 </r>
       <r>    4.2493    1.0000 </r>
       <r>    4.5377    1.0000 </r>
       <r>    7.5429    0.0000 </r>
       <r>    7.6434    0.0000 </r>
       <r>    7.9086    0.0000 </r>
       <r>    8.0550    0.0000 </r>
       <r>    8.9122    0.0000 </r>
       <r>    9.1545    0.0000 </r>
       <r>    9.3148    0.0000 </r>
       <r>    9.4561    0.0000 </r>
       <r>    9.5556    0.0000 </r>
      </set>
      <set comment="kpoint 48">
       <r>   -4.5911    1.0000 </r>
       <r>   -4.0858    1.0000 </r>
       <r>   -3.9648    1.0000 </r>
       <r>   -3.5737    1.0000 </r>
       <r>   -1.3112    1.0000 </r>
       <r>   -0.9301    1.0000 </r>
       <r>   -0.6706    1.0000 </r>
       <r>   -0.1300    1.0000 </r>
       <r>    3.0019    1.0000 </r>
       <r>    3.2295    1.0000 </r>
       <r>    3.5291    1.0000 </r>
       <r>    3.8150    1.0000 </r>
       <r>    4.0578    1.0000 </r>
       <r>    4.2012    1.0000 </r>
       <r>    4.2735    1.0000 </r>
       <r>    4.7331    1.0000 </r>
       <r>    7.5242    0.0000 </r>
       <r>    7.7109    0.0000 </r>
       <r>    7.9561    0.0000 </r>
       <r>    8.1558    0.0000 </r>
       <r>    8.5431    0.0000 </r>
       <r>    8.7416    0.0000 </r>
       <r>    9.0050    0.0000 </r>
       <r>    9.2933    0.0000 </r>
       <r>    9.8922    0.0000 </r>
      </set>
      <set comment="kpoint 49">
       <r>   -5.1119    1.0000 </r>
       <r>   -4.5951    1.0000 </r>
       <r>   -3.5693    1.0000 </r>
       <r>   -3.0302    1.0000 </r>
       <r>   -1.1566    1.0000 </r>
       <r>   -0.3255    1.0000 </r>
       <r>    0.9188    1.0000 </r>
       <r>    1.2141    1.0000 </r>
       <r>    1.5381    1.0000 </r>
       <r>    1.7493    1.0000 </r>
       <r>    2.5819    1.0000 </r>
       <r>    2.9810    1.0000 </r>
       <r>    3.1452    1.0000 </r>
       <r>    3.4892    1.0000 </r>
       <r>    3.7555    1.0000 </r>
       <r>    4.9747    1.0000 </r>
       <r>    7.8390    0.0000 </r>
       <r>    8.2163    0.0000 </r>
       <r>    8.4587    0.0000 </r>
       <r>    8.7579    0.0000 </r>
       <r>    9.0904    0.0000 </r>
       <r>    9.2605    0.0000 </r>
       <r>    9.5788    0.0000 </r>
       <r>    9.6367    0.0000 </r>
       <r>   11.7674    0.0000 </r>
      </set>
      <set comment="kpoint 50">
       <r>   -5.0382    1.0000 </r>
       <r>   -4.5362    1.0000 </r>
       <r>   -3.5702    1.0000 </r>
       <r>   -3.1385    1.0000 </r>
       <r>   -1.2372    1.0000 </r>
       <r>   -0.5598    1.0000 </r>
       <r>    0.5409    1.0000 </r>
       <r>    0.9533    1.0000 </r>
       <r>    1.7310    1.0000 </r>
       <r>    2.0265    1.0000 </r>
       <r>    2.8839    1.0000 </r>
       <r>    3.1981    1.0000 </r>
       <r>    3.5473    1.0000 </r>
       <r>    3.6194    1.0000 </r>
       <r>    3.8128    1.0000 </r>
       <r>    4.8902    1.0000 </r>
       <r>    7.8784    0.0000 </r>
       <r>    7.9008    0.0000 </r>
       <r>    8.1982    0.0000 </r>
       <r>    8.6443    0.0000 </r>
       <r>    8.8560    0.0000 </r>
       <r>    9.0387    0.0000 </r>
       <r>    9.5799    0.0000 </r>
       <r>    9.9595    0.0000 </r>
       <r>   10.1939    0.0000 </r>
      </set>
      <set comment="kpoint 51">
       <r>   -4.8258    1.0000 </r>
       <r>   -4.3740    1.0000 </r>
       <r>   -3.6047    1.0000 </r>
       <r>   -3.4638    1.0000 </r>
       <r>   -1.2343    1.0000 </r>
       <r>   -0.8981    1.0000 </r>
       <r>   -0.0980    1.0000 </r>
       <r>    0.2631    1.0000 </r>
       <r>    2.4275    1.0000 </r>
       <r>    2.5370    1.0000 </r>
       <r>    3.2163    1.0000 </r>
       <r>    3.7208    1.0000 </r>
       <r>    3.7961    1.0000 </r>
       <r>    4.0293    1.0000 </r>
       <r>    4.3011    1.0000 </r>
       <r>    4.6774    1.0000 </r>
       <r>    7.6643    0.0000 </r>
       <r>    7.7204    0.0000 </r>
       <r>    8.0150    0.0000 </r>
       <r>    8.1934    0.0000 </r>
       <r>    8.8185    0.0000 </r>
       <r>    8.9219    0.0000 </r>
       <r>    9.2667    0.0000 </r>
       <r>    9.4562    0.0000 </r>
       <r>    9.7677    0.0000 </r>
      </set>
      <set comment="kpoint 52">
       <r>   -4.5293    1.0000 </r>
       <r>   -4.1668    1.0000 </r>
       <r>   -3.8847    1.0000 </r>
[...]
       <r>     2.3524     2.1567     9.4682 </r>
       <r>     2.3724     2.2158     9.5126 </r>
       <r>     2.3924     2.2802     9.5582 </r>
       <r>     2.4124     2.3475     9.6052 </r>
       <r>     2.4324     2.4153     9.6536 </r>
       <r>     2.4525     2.4812     9.7033 </r>
       <r>     2.4725     2.5427     9.7542 </r>
       <r>     2.4925     2.5976     9.8062 </r>
       <r>     2.5125     2.6440     9.8591 </r>
       <r>     2.5325     2.6806     9.9128 </r>
       <r>     2.5526     2.7063     9.9669 </r>
       <r>     2.5726     2.7208    10.0214 </r>
       <r>     2.5926     2.7242    10.0760 </r>
       <r>     2.6126     2.7174    10.1304 </r>
       <r>     2.6326     2.7018    10.1844 </r>
       <r>     2.6527     2.6792    10.2381 </r>
       <r>     2.6727     2.6519    10.2912 </r>
       <r>     2.6927     2.6224    10.3437 </r>
       <r>     2.7127     2.5932    10.3956 </r>
       <r>     2.7327     2.5669    10.4470 </r>
       <r>     2.7528     2.5458    10.4979 </r>
       <r>     2.7728     2.5317    10.5486 </r>
       <r>     2.7928     2.5262    10.5992 </r>
       <r>     2.8128     2.5301    10.6499 </r>
       <r>     2.8328     2.5437    10.7008 </r>
       <r>     2.8529     2.5665    10.7522 </r>
       <r>     2.8729     2.5976    10.8042 </r>
       <r>     2.8929     2.6357    10.8569 </r>
       <r>     2.9129     2.6787    10.9106 </r>
       <r>     2.9329     2.7248    10.9651 </r>
       <r>     2.9530     2.7717    11.0206 </r>
       <r>     2.9730     2.8174    11.0770 </r>
       <r>     2.9930     2.8602    11.1343 </r>
       <r>     3.0130     2.8983    11.1923 </r>
       <r>     3.0330     2.9309    11.2510 </r>
       <r>     3.0531     2.9572    11.3102 </r>
       <r>     3.0731     2.9771    11.3698 </r>
       <r>     3.0931     2.9906    11.4296 </r>
       <r>     3.1131     2.9983    11.4897 </r>
       <r>     3.1331     3.0009    11.5498 </r>
       <r>     3.1532     2.9993    11.6098 </r>
       <r>     3.1732     2.9944    11.6697 </r>
       <r>     3.1932     2.9872    11.7295 </r>
       <r>     3.2132     2.9785    11.7892 </r>
       <r>     3.2332     2.9691    11.8486 </r>
       <r>     3.2533     2.9594    11.9079 </r>
       <r>     3.2733     2.9498    11.9669 </r>
       <r>     3.2933     2.9406    12.0258 </r>
       <r>     3.3133     2.9316    12.0845 </r>
       <r>     3.3333     2.9228    12.1430 </r>
       <r>     3.3534     2.9135    12.2013 </r>
       <r>     3.3734     2.9032    12.2594 </r>
       <r>     3.3934     2.8913    12.3173 </r>
       <r>     3.4134     2.8770    12.3749 </r>
       <r>     3.4334     2.8597    12.4322 </r>
       <r>     3.4535     2.8386    12.4890 </r>
       <r>     3.4735     2.8135    12.5453 </r>
       <r>     3.4935     2.7843    12.6011 </r>
       <r>     3.5135     2.7510    12.6562 </r>
       <r>     3.5335     2.7142    12.7105 </r>
       <r>     3.5536     2.6746    12.7640 </r>
       <r>     3.5736     2.6331    12.8168 </r>
       <r>     3.5936     2.5908    12.8686 </r>
       <r>     3.6136     2.5490    12.9197 </r>
       <r>     3.6336     2.5088    12.9699 </r>
       <r>     3.6537     2.4713    13.0194 </r>
       <r>     3.6737     2.4372    13.0681 </r>
       <r>     3.6937     2.4073    13.1163 </r>
       <r>     3.7137     2.3821    13.1640 </r>
       <r>     3.7337     2.3617    13.2113 </r>
       <r>     3.7538     2.3461    13.2583 </r>
       <r>     3.7738     2.3352    13.3050 </r>
       <r>     3.7938     2.3287    13.3517 </r>
       <r>     3.8138     2.3262    13.3982 </r>
       <r>     3.8338     2.3272    13.4448 </r>
       <r>     3.8539     2.3312    13.4915 </r>
       <r>     3.8739     2.3376    13.5383 </r>
       <r>     3.8939     2.3459    13.5852 </r>
       <r>     3.9139     2.3554    13.6324 </r>
       <r>     3.9339     2.3655    13.6798 </r>
       <r>     3.9540     2.3754    13.7273 </r>
       <r>     3.9740     2.3846    13.7751 </r>
       <r>     3.9940     2.3924    13.8229 </r>
       <r>     4.0140     2.3982    13.8710 </r>
       <r>     4.0340     2.4015    13.9190 </r>
       <r>     4.0541     2.4020    13.9671 </r>
       <r>     4.0741     2.3992    14.0152 </r>
       <r>     4.0941     2.3931    14.0631 </r>
       <r>     4.1141     2.3835    14.1108 </r>
       <r>     4.1341     2.3705    14.1582 </r>
       <r>     4.1542     2.3543    14.2054 </r>
       <r>     4.1742     2.3348    14.2521 </r>
       <r>     4.1942     2.3122    14.2984 </r>
       <r>     4.2142     2.2868    14.3442 </r>
       <r>     4.2342     2.2584    14.3894 </r>
       <r>     4.2543     2.2271    14.4340 </r>
       <r>     4.2743     2.1928    14.4779 </r>
       <r>     4.2943     2.1557    14.5210 </r>
       <r>     4.3143     2.1156    14.5634 </r>
       <r>     4.3343     2.0728    14.6049 </r>
       <r>     4.3544     2.0274    14.6455 </r>
       <r>     4.3744     1.9801    14.6851 </r>
       <r>     4.3944     1.9316    14.7238 </r>
       <r>     4.4144     1.8828    14.7615 </r>
       <r>     4.4344     1.8349    14.7982 </r>
       <r>     4.4545     1.7891    14.8340 </r>
       <r>     4.4745     1.7468    14.8690 </r>
       <r>     4.4945     1.7091    14.9032 </r>
       <r>     4.5145     1.6771    14.9368 </r>
       <r>     4.5345     1.6514    14.9699 </r>
       <r>     4.5546     1.6321    15.0025 </r>
       <r>     4.5746     1.6189    15.0350 </r>
       <r>     4.5946     1.6108    15.0672 </r>
       <r>     4.6146     1.6066    15.0994 </r>
       <r>     4.6346     1.6044    15.1315 </r>
       <r>     4.6547     1.6025    15.1636 </r>
       <r>     4.6747     1.5987    15.1956 </r>
       <r>     4.6947     1.5914    15.2274 </r>
       <r>     4.7147     1.5790    15.2590 </r>
       <r>     4.7347     1.5605    15.2903 </r>
       <r>     4.7548     1.5355    15.3210 </r>
       <r>     4.7748     1.5040    15.3511 </r>
       <r>     4.7948     1.4666    15.3805 </r>
       <r>     4.8148     1.4242    15.4090 </r>
       <r>     4.8348     1.3782    15.4366 </r>
       <r>     4.8549     1.3297    15.4632 </r>
       <r>     4.8749     1.2802    15.4889 </r>
       <r>     4.8949     1.2308    15.5135 </r>
       <r>     4.9149     1.1824    15.5372 </r>
       <r>     4.9349     1.1359    15.5599 </r>
       <r>     4.9550     1.0918    15.5818 </r>
       <r>     4.9750     1.0503    15.6028 </r>
       <r>     4.9950     1.0115    15.6230 </r>
       <r>     5.0150     0.9754    15.6426 </r>
       <r>     5.0350     0.9418    15.6614 </r>
       <r>     5.0551     0.9103    15.6796 </r>
       <r>     5.0751     0.8805    15.6973 </r>
       <r>     5.0951     0.8519    15.7143 </r>
       <r>     5.1151     0.8241    15.7308 </r>
       <r>     5.1351     0.7966    15.7468 </r>
       <r>     5.1552     0.7688    15.7622 </r>
       <r>     5.1752     0.7405    15.7770 </r>
       <r>     5.1952     0.7112    15.7912 </r>
       <r>     5.2152     0.6810    15.8049 </r>
       <r>     5.2352     0.6498    15.8179 </r>
       <r>     5.2553     0.6178    15.8302 </r>
       <r>     5.2753     0.5853    15.8420 </r>
       <r>     5.2953     0.5528    15.8530 </r>
       <r>     5.3153     0.5208    15.8635 </r>
       <r>     5.3353     0.4898    15.8733 </r>
       <r>     5.3554     0.4602    15.8825 </r>
       <r>     5.3754     0.4324    15.8911 </r>
       <r>     5.3954     0.4066    15.8993 </r>
       <r>     5.4154     0.3830    15.9069 </r>
       <r>     5.4354     0.3616    15.9142 </r>
       <r>     5.4555     0.3422    15.9210 </r>
       <r>     5.4755     0.3245    15.9275 </r>
       <r>     5.4955     0.3081    15.9337 </r>
       <r>     5.5155     0.2927    15.9396 </r>
       <r>     5.5355     0.2779    15.9451 </r>
       <r>     5.5556     0.2633    15.9504 </r>
       <r>     5.5756     0.2485    15.9554 </r>
       <r>     5.5956     0.2334    15.9600 </r>
       <r>     5.6156     0.2178    15.9644 </r>
       <r>     5.6356     0.2019    15.9684 </r>
       <r>     5.6557     0.1856    15.9722 </r>
       <r>     5.6757     0.1693    15.9755 </r>
       <r>     5.6957     0.1531    15.9786 </r>
       <r>     5.7157     0.1375    15.9814 </r>
       <r>     5.7357     0.1227    15.9838 </r>
       <r>     5.7558     0.1089    15.9860 </r>
       <r>     5.7758     0.0965    15.9879 </r>
       <r>     5.7958     0.0856    15.9896 </r>
       <r>     5.8158     0.0763    15.9912 </r>
       <r>     5.8358     0.0687    15.9925 </r>
       <r>     5.8559     0.0627    15.9938 </r>
       <r>     5.8759     0.0583    15.9950 </r>
       <r>     5.8959     0.0555    15.9961 </r>
       <r>     5.9159     0.0543    15.9972 </r>
       <r>     5.9359     0.0545    15.9983 </r>
       <r>     5.9560     0.0562    15.9994 </r>
       <r>     5.9760     0.0593    16.0006 </r>
       <r>     5.9960     0.0638    16.0018 </r>
       <r>     6.0160     0.0696    16.0032 </r>
       <r>     6.0360     0.0768    16.0048 </r>
       <r>     6.0561     0.0852    16.0065 </r>
       <r>     6.0761     0.0947    16.0084 </r>
       <r>     6.0961     0.1055    16.0105 </r>
       <r>     6.1161     0.1172    16.0128 </r>
       <r>     6.1361     0.1300    16.0154 </r>
       <r>     6.1562     0.1437    16.0183 </r>
       <r>     6.1762     0.1583    16.0215 </r>
       <r>     6.1962     0.1739    16.0250 </r>
       <r>     6.2162     0.1905    16.0288 </r>
       <r>     6.2362     0.2080    16.0329 </r>
       <r>     6.2563     0.2267    16.0375 </r>
       <r>     6.2763     0.2463    16.0424 </r>
       <r>     6.2963     0.2670    16.0478 </r>
       <r>     6.3163     0.2887    16.0535 </r>
       <r>     6.3363     0.3112    16.0598 </r>
       <r>     6.3564     0.3344    16.0665 </r>
       <r>     6.3764     0.3583    16.0736 </r>
       <r>     6.3964     0.3826    16.0813 </r>
       <r>     6.4164     0.4073    16.0894 </r>
       <r>     6.4364     0.4323    16.0981 </r>
       <r>     6.4565     0.4578    16.1073 </r>
       <r>     6.4765     0.4839    16.1170 </r>
       <r>     6.4965     0.5108    16.1272 </r>
       <r>     6.5165     0.5389    16.1380 </r>
       <r>     6.5365     0.5683    16.1493 </r>
       <r>     6.5566     0.5993    16.1613 </r>
       <r>     6.5766     0.6322    16.1740 </r>
       <r>     6.5966     0.6669    16.1874 </r>
       <r>     6.6166     0.7033    16.2014 </r>
       <r>     6.6366     0.7410    16.2163 </r>
       <r>     6.6567     0.7797    16.2319 </r>
       <r>     6.6767     0.8189    16.2483 </r>
       <r>     6.6967     0.8578    16.2654 </r>
       <r>     6.7167     0.8962    16.2834 </r>
       <r>     6.7367     0.9334    16.3021 </r>
       <r>     6.7568     0.9695    16.3215 </r>
       <r>     6.7768     1.0042    16.3416 </r>
       <r>     6.7968     1.0379    16.3624 </r>
       <r>     6.8168     1.0709    16.3838 </r>
       <r>     6.8368     1.1036    16.4059 </r>
       <r>     6.8569     1.1366    16.4287 </r>
       <r>     6.8769     1.1702    16.4521 </r>
       <r>     6.8969     1.2046    16.4762 </r>
       <r>     6.9169     1.2397    16.5010 </r>
       <r>     6.9369     1.2752    16.5266 </r>
       <r>     6.9570     1.3105    16.5528 </r>
       <r>     6.9770     1.3447    16.5797 </r>
       <r>     6.9970     1.3770    16.6073 </r>
       <r>     7.0170     1.4064    16.6354 </r>
       <r>     7.0370     1.4320    16.6641 </r>
       <r>     7.0571     1.4531    16.6932 </r>
       <r>     7.0771     1.4693    16.7226 </r>
       <r>     7.0971     1.4804    16.7522 </r>
       <r>     7.1171     1.4867    16.7820 </r>
       <r>     7.1371     1.4886    16.8118 </r>
       <r>     7.1572     1.4872    16.8416 </r>
       <r>     7.1772     1.4836    16.8713 </r>
       <r>     7.1972     1.4791    16.9009 </r>
       <r>     7.2172     1.4754    16.9304 </r>
       <r>     7.2372     1.4741    16.9600 </r>
       <r>     7.2573     1.4770    16.9895 </r>
       <r>     7.2773     1.4857    17.0193 </r>
       <r>     7.2973     1.5018    17.0493 </r>
       <r>     7.3173     1.5266    17.0799 </r>
       <r>     7.3373     1.5611    17.1111 </r>
       <r>     7.3574     1.6060    17.1433 </r>
       <r>     7.3774     1.6616    17.1766 </r>
       <r>     7.3974     1.7276    17.2112 </r>
       <r>     7.4174     1.8035    17.2473 </r>
       <r>     7.4374     1.8880    17.2851 </r>
       <r>     7.4575     1.9796    17.3247 </r>
       <r>     7.4775     2.0764    17.3663 </r>
       <r>     7.4975     2.1760    17.4098 </r>
       <r>     7.5175     2.2759    17.4554 </r>
       <r>     7.5375     2.3735    17.5029 </r>
       <r>     7.5576     2.4662    17.5523 </r>
       <r>     7.5776     2.5517    17.6034 </r>
       <r>     7.5976     2.6279    17.6560 </r>
       <r>     7.6176     2.6932    17.7099 </r>
       <r>     7.6376     2.7467    17.7649 </r>
       <r>     7.6577     2.7879    17.8207 </r>
       <r>     7.6777     2.8174    17.8771 </r>
       <r>     7.6977     2.8360    17.9339 </r>
       <r>     7.7177     2.8453    17.9908 </r>
       <r>     7.7377     2.8474    18.0478 </r>
       <r>     7.7578     2.8443    18.1048 </r>
       <r>     7.7778     2.8384    18.1616 </r>
       <r>     7.7978     2.8317    18.2183 </r>
       <r>     7.8178     2.8259    18.2749 </r>
       <r>     7.8378     2.8224    18.3314 </r>
       <r>     7.8579     2.8218    18.3879 </r>
       <r>     7.8779     2.8246    18.4444 </r>
       <r>     7.8979     2.8304    18.5011 </r>
       <r>     7.9179     2.8389    18.5579 </r>
       <r>     7.9379     2.8491    18.6150 </r>
       <r>     7.9580     2.8602    18.6722 </r>
       <r>     7.9780     2.8712    18.7297 </r>
       <r>     7.9980     2.8811    18.7874 </r>
       <r>     8.0180     2.8893    18.8452 </r>
       <r>     8.0380     2.8949    18.9032 </r>
       <r>     8.0581     2.8974    18.9612 </r>
       <r>     8.0781     2.8962    19.0192 </r>
       <r>     8.0981     2.8910    19.0770 </r>
       <r>     8.1181     2.8814    19.1347 </r>
       <r>     8.1381     2.8671    19.1921 </r>
       <r>     8.1582     2.8480    19.2491 </r>
       <r>     8.1782     2.8239    19.3057 </r>
       <r>     8.1982     2.7951    19.3616 </r>
       <r>     8.2182     2.7618    19.4169 </r>
       <r>     8.2382     2.7246    19.4715 </r>
       <r>     8.2583     2.6843    19.5252 </r>
       <r>     8.2783     2.6420    19.5781 </r>
       <r>     8.2983     2.5990    19.6301 </r>
       <r>     8.3183     2.5565    19.6813 </r>
       <r>     8.3383     2.5160    19.7317 </r>
       <r>     8.3584     2.4787    19.7813 </r>
       <r>     8.3784     2.4458    19.8303 </r>
       <r>     8.3984     2.4181    19.8787 </r>
       <r>     8.4184     2.3961    19.9267 </r>
       <r>     8.4384     2.3800    19.9743 </r>
       <r>     8.4585     2.3697    20.0218 </r>
       <r>     8.4785     2.3645    20.0691 </r>
       <r>     8.4985     2.3638    20.1164 </r>
       <r>     8.5185     2.3666    20.1638 </r>
       <r>     8.5385     2.3718    20.2113 </r>
       <r>     8.5586     2.3786    20.2589 </r>
       <r>     8.5786     2.3860    20.3067 </r>
       <r>     8.5986     2.3935    20.3546 </r>
       <r>     8.6186     2.4009    20.4026 </r>
       <r>     8.6386     2.4081    20.4509 </r>
       <r>     8.6587     2.4156    20.4992 </r>
       <r>     8.6787     2.4240    20.5477 </r>
       <r>     8.6987     2.4344    20.5965 </r>
       <r>     8.7187     2.4478    20.6455 </r>
       <r>     8.7387     2.4653    20.6948 </r>
       <r>     8.7588     2.4878    20.7447 </r>
       <r>     8.7788     2.5160    20.7950 </r>
       <r>     8.7988     2.5506    20.8461 </r>
       <r>     8.8188     2.5916    20.8980 </r>
       <r>     8.8388     2.6386    20.9508 </r>
       <r>     8.8589     2.6912    21.0047 </r>
       <r>     8.8789     2.7483    21.0597 </r>
       <r>     8.8989     2.8086    21.1159 </r>
       <r>     8.9189     2.8707    21.1734 </r>
       <r>     8.9389     2.9329    21.2321 </r>
       <r>     8.9590     2.9936    21.2920 </r>
       <r>     8.9790     3.0512    21.3531 </r>
       <r>     8.9990     3.1043    21.4153 </r>
       <r>     9.0190     3.1515    21.4784 </r>
       <r>     9.0390     3.1918    21.5423 </r>
       <r>     9.0591     3.2245    21.6068 </r>
       <r>     9.0791     3.2494    21.6719 </r>
       <r>     9.0991     3.2662    21.7373 </r>
       <r>     9.1191     3.2755    21.8028 </r>
       <r>     9.1391     3.2780    21.8685 </r>
       <r>     9.1592     3.2745    21.9340 </r>
       <r>     9.1792     3.2662    21.9994 </r>
       <r>     9.1992     3.2544    22.0646 </r>
       <r>     9.2192     3.2403    22.1294 </r>
       <r>     9.2392     3.2250    22.1940 </r>
       <r>     9.2593     3.2094    22.2583 </r>
       <r>     9.2793     3.1941    22.3222 </r>
       <r>     9.2993     3.1793    22.3858 </r>
       <r>     9.3193     3.1648    22.4492 </r>
       <r>     9.3393     3.1500    22.5123 </r>
       <r>     9.3594     3.1339    22.5750 </r>
       <r>     9.3794     3.1155    22.6374 </r>
       <r>     9.3994     3.0933    22.6993 </r>
       <r>     9.4194     3.0659    22.7607 </r>
       <r>     9.4394     3.0322    22.8214 </r>
       <r>     9.4595     2.9911    22.8813 </r>
       <r>     9.4795     2.9420    22.9402 </r>
       <r>     9.4995     2.8847    22.9979 </r>
       <r>     9.5195     2.8196    23.0544 </r>
       <r>     9.5395     2.7473    23.1094 </r>
       <r>     9.5596     2.6690    23.1628 </r>
       <r>     9.5796     2.5862    23.2146 </r>
       <r>     9.5996     2.5003    23.2646 </r>
       <r>     9.6196     2.4131    23.3130 </r>
       <r>     9.6396     2.3259    23.3595 </r>
       <r>     9.6597     2.2402    23.4044 </r>
       <r>     9.6797     2.1569    23.4475 </r>
       <r>     9.6997     2.0768    23.4891 </r>
       <r>     9.7197     2.0003    23.5292 </r>
       <r>     9.7397     1.9279    23.5678 </r>
       <r>     9.7598     1.8598    23.6050 </r>
       <r>     9.7798     1.7962    23.6410 </r>
       <r>     9.7998     1.7375    23.6757 </r>
       <r>     9.8198     1.6840    23.7095 </r>
       <r>     9.8398     1.6363    23.7422 </r>
       <r>     9.8599     1.5949    23.7741 </r>
       <r>     9.8799     1.5603    23.8054 </r>
       <r>     9.8999     1.5328    23.8361 </r>
       <r>     9.9199     1.5127    23.8664 </r>
       <r>     9.9399     1.4997    23.8964 </r>
       <r>     9.9600     1.4931    23.9263 </r>
       <r>     9.9800     1.4922    23.9561 </r>
       <r>    10.0000     1.4956    23.9861 </r>
      </set>
     </set>
    </array>
   </total>
  </dos>
 </calculation>
 <structure name="finalpos" >
  <crystal>
   <varray name="basis" >
    <v>       5.46503124       0.00000000       0.00000000 </v>
    <v>       0.00000000       5.46503124       0.00000000 </v>
    <v>       0.00000000       0.00000000       5.46503124 </v>
   </varray>
   <i name="volume">    163.22171868 </i>
   <varray name="rec_basis" >
    <v>       0.18298157       0.00000000       0.00000000 </v>
    <v>       0.00000000       0.18298157       0.00000000 </v>
    <v>       0.00000000       0.00000000       0.18298157 </v>
   </varray>
  </crystal>
  <varray name="positions" >
   <v>       0.00000000       0.00000000       0.00000000 </v>
   <v>       0.00000000       0.50000000       0.50000000 </v>
   <v>       0.45000000       0.50000000       0.00000000 </v>
   <v>       0.50000000       0.00000000       0.50000000 </v>
   <v>       0.75000000       0.25000000       0.75000000 </v>
   <v>       0.25000000       0.25000000       0.25000000 </v>
   <v>       0.25000000       0.75000000       0.75000000 </v>
   <v>       0.75000000       0.75000000       0.25000000 </v>
  </varray>
 </structure>
</modeling>
