       N       E                     dE             d eps       ncg     rms          rms(c)
DAV:   1    -0.196841740047E+02   -0.19684E+02   -0.73228E+00    32   0.168E+01    0.425E+00
DAV:   2    -0.192277183740E+02    0.45646E+00   -0.24454E+00    16   0.991E+00    0.323E-01
DAV:   3    -0.192275157055E+02    0.20267E-03   -0.29570E-02    32   0.130E+00    0.169E-01
DAV:   4    -0.192273096005E+02    0.20611E-03   -0.14830E-04    16   0.126E-01    0.932E-02
DAV:   5    -0.192272430761E+02    0.66524E-04   -0.46002E-04    16   0.177E-01    0.316E-02
DAV:   6    -0.192275939335E+02   -0.35086E-03   -0.11252E-04    16   0.647E-02    0.996E-03
DAV:   7    -0.192277207367E+02   -0.12680E-03   -0.23493E-05    24   0.315E-02    0.609E-03
DAV:   8    -0.192278134442E+02   -0.92708E-04   -0.73640E-06    16   0.171E-02    0.258E-03
DAV:   9    -0.192278518651E+02   -0.38421E-04   -0.42478E-06    16   0.124E-02    0.167E-03
DAV:  10    -0.192278651006E+02   -0.13236E-04   -0.11411E-06    16   0.572E-03    0.588E-04
DAV:  11    -0.192278679266E+02   -0.28259E-05   -0.25198E-07    24   0.275E-03    0.429E-04
DAV:  12    -0.192278684902E+02   -0.56362E-06   -0.90661E-08    16   0.159E-03
   1 F= -.19227868E+02 E0= -.19231734E+02  d E =-.192279E+02
       N       E                     dE             d eps       ncg     rms          rms(c)
DAV:   1    -0.192390224037E+02   -0.11154E-01   -0.10061E-02    16   0.964E-01    0.432E-02
DAV:   2    -0.192389810329E+02    0.41371E-04   -0.23115E-04    16   0.115E-01    0.202E-02
DAV:   3    -0.192389772745E+02    0.37584E-05   -0.28278E-05    32   0.408E-02    0.119E-02
DAV:   4    -0.192389775140E+02   -0.23947E-06   -0.49380E-06    16   0.158E-02
   2 F= -.19238978E+02 E0= -.19242843E+02  d E =-.111090E-01
       N       E                     dE             d eps       ncg     rms          rms(c)
DAV:   1    -0.193581215774E+02   -0.11914E+00   -0.17705E+00    16   0.127E+01    0.582E-01
DAV:   2    -0.193502936873E+02    0.78279E-02   -0.42851E-02    24   0.146E+00    0.270E-01
DAV:   3    -0.193497591146E+02    0.53457E-03   -0.19126E-03    16   0.349E-01    0.163E-01
DAV:   4    -0.193497386056E+02    0.20509E-04   -0.54032E-04    24   0.197E-01    0.339E-02
DAV:   5    -0.193497578800E+02   -0.19274E-04   -0.88413E-05    16   0.779E-02    0.111E-02
DAV:   6    -0.193497691044E+02   -0.11224E-04   -0.67707E-06    16   0.240E-02    0.506E-03
DAV:   7    -0.193497850733E+02   -0.15969E-04   -0.38465E-06    16   0.127E-02    0.247E-03
DAV:   8    -0.193497996535E+02   -0.14580E-04   -0.17616E-06    16   0.529E-03    0.141E-03
DAV:   9    -0.193498073523E+02   -0.76988E-05   -0.13248E-06    16   0.461E-03    0.968E-04
DAV:  10    -0.193498098108E+02   -0.24586E-05   -0.36216E-07    16   0.230E-03    0.330E-04
DAV:  11    -0.193498100938E+02   -0.28301E-06   -0.25767E-08    32   0.611E-04
   3 F= -.19349810E+02 E0= -.19353675E+02  d E =-.110833E+00
       N       E                     dE             d eps       ncg     rms          rms(c)
DAV:   1    -0.194189996766E+02   -0.69190E-01   -0.35731E+00    16   0.180E+01    0.701E-01
DAV:   2    -0.194084133825E+02    0.10586E-01   -0.70184E-02    24   0.186E+00    0.328E-01
DAV:   3    -0.194075721690E+02    0.84121E-03   -0.21231E-03    16   0.393E-01    0.203E-01
DAV:   4    -0.194075384504E+02    0.33719E-04   -0.10867E-03    16   0.295E-01    0.388E-02
DAV:   5    -0.194075776453E+02   -0.39195E-04   -0.15879E-04    32   0.984E-02    0.167E-02
DAV:   6    -0.194075944928E+02   -0.16847E-04   -0.91943E-06    16   0.262E-02    0.765E-03
DAV:   7    -0.194076186749E+02   -0.24182E-04   -0.56461E-06    16   0.140E-02    0.281E-03
DAV:   8    -0.194076480183E+02   -0.29343E-04   -0.63286E-06    16   0.947E-03    0.238E-03
DAV:   9    -0.194076584251E+02   -0.10407E-04   -0.18511E-06    24   0.415E-03    0.178E-03
DAV:  10    -0.194076616012E+02   -0.31761E-05   -0.50094E-07    16   0.260E-03    0.190E-04
DAV:  11    -0.194076622941E+02   -0.69290E-06   -0.10183E-07    16   0.122E-03
   4 F= -.19407662E+02 E0= -.19411528E+02  d E =-.578522E-01
       N       E                     dE             d eps       ncg     rms          rms(c)
DAV:   1    -0.194162078929E+02   -0.85463E-02   -0.66877E-01    16   0.767E+00    0.181E-01
DAV:   2    -0.194157240014E+02    0.48389E-03   -0.52753E-03    16   0.581E-01    0.909E-02
DAV:   3    -0.194156575378E+02    0.66464E-04   -0.41485E-04    16   0.183E-01    0.525E-02
DAV:   4    -0.194156611953E+02   -0.36574E-05   -0.10790E-04    16   0.845E-02    0.213E-02
DAV:   5    -0.194156637386E+02   -0.25433E-05   -0.29336E-05    32   0.431E-02    0.613E-03
DAV:   6    -0.194156674611E+02   -0.37225E-05   -0.20329E-06    16   0.128E-02    0.330E-03
DAV:   7    -0.194156732822E+02   -0.58211E-05   -0.12517E-06    16   0.675E-03    0.154E-03
DAV:   8    -0.194156799430E+02   -0.66608E-05   -0.11313E-06    24   0.401E-03    0.146E-03
DAV:   9    -0.194156831622E+02   -0.32192E-05   -0.82376E-07    16   0.360E-03    0.720E-04
DAV:  10    -0.194156839493E+02   -0.78712E-06   -0.12094E-07    24   0.130E-03
   5 F= -.19415684E+02 E0= -.19419549E+02  d E =-.802166E-02
       N       E                     dE             d eps       ncg     rms          rms(c)
DAV:   1    -0.194373726646E+02   -0.21690E-01   -0.49394E+00    16   0.209E+01    0.405E-01
DAV:   2    -0.194359152982E+02    0.14574E-02   -0.24146E-02    16   0.137E+00    0.210E-01
DAV:   3    -0.194354309450E+02    0.48435E-03   -0.13942E-03    24   0.364E-01    0.987E-02
DAV:   4    -0.194354821173E+02   -0.51172E-04   -0.72285E-04    16   0.236E-01    0.242E-02
DAV:   5    -0.194355192830E+02   -0.37166E-04   -0.86486E-05    32   0.781E-02    0.142E-02
DAV:   6    -0.194355542435E+02   -0.34961E-04   -0.66215E-06    16   0.200E-02    0.633E-03
DAV:   7    -0.194355974213E+02   -0.43178E-04   -0.10329E-05    16   0.180E-02    0.311E-03
DAV:   8    -0.194356459941E+02   -0.48573E-04   -0.12027E-05    24   0.120E-02    0.261E-03
DAV:   9    -0.194356588945E+02   -0.12900E-04   -0.21581E-06    24   0.521E-03    0.146E-03
DAV:  10    -0.194356662909E+02   -0.73964E-05   -0.19739E-06    16   0.424E-03    0.396E-04
DAV:  11    -0.194356668456E+02   -0.55472E-06   -0.85373E-08    32   0.107E-03
   6 F= -.19435667E+02 E0= -.19439532E+02  d E =-.199829E-01
       N       E                     dE             d eps       ncg     rms          rms(c)
DAV:   1    -0.194719497738E+02   -0.36283E-01   -0.29346E+01    16   0.517E+01    0.982E-01
DAV:   2    -0.194770506329E+02   -0.51009E-02   -0.23701E-01    24   0.417E+00    0.543E-01
DAV:   3    -0.194734836477E+02    0.35670E-02   -0.99758E-03    24   0.739E-01    0.300E-01
DAV:   4    -0.194739817586E+02   -0.49811E-03   -0.76217E-03    16   0.736E-01    0.713E-02
DAV:   5    -0.194742486478E+02   -0.26689E-03   -0.20963E-03    16   0.353E-01    0.451E-02
DAV:   6    -0.194742899184E+02   -0.41271E-04   -0.77796E-05    24   0.772E-02    0.330E-02
DAV:   7    -0.194744545387E+02   -0.16462E-03   -0.28458E-05    16   0.326E-02    0.171E-02
DAV:   8    -0.194745724766E+02   -0.11794E-03   -0.48561E-05    24   0.409E-02    0.660E-03
DAV:   9    -0.194747473621E+02   -0.17489E-03   -0.57531E-05    16   0.279E-02    0.546E-03
DAV:  10    -0.194747714350E+02   -0.24073E-04   -0.38781E-06    32   0.986E-03    0.237E-03
DAV:  11    -0.194747887261E+02   -0.17291E-04   -0.50289E-06    16   0.732E-03    0.219E-03
DAV:  12    -0.194747895341E+02   -0.80793E-06   -0.10385E-07    32   0.159E-03
   7 F= -.19474790E+02 E0= -.19478655E+02  d E =-.391227E-01
       N       E                     dE             d eps       ncg     rms          rms(c)
DAV:   1    -0.194765760907E+02   -0.17874E-02   -0.16033E+01    16   0.393E+01    0.715E-01
DAV:   2    -0.194840663179E+02   -0.74902E-02   -0.14221E-01    16   0.323E+00    0.428E-01
DAV:   3    -0.194820907340E+02    0.19756E-02   -0.57930E-03    32   0.628E-01    0.246E-01
DAV:   4    -0.194822064691E+02   -0.11574E-03   -0.58379E-03    16   0.586E-01    0.739E-02
DAV:   5    -0.194822327396E+02   -0.26270E-04   -0.83764E-04    16   0.228E-01    0.273E-02
DAV:   6    -0.194823504697E+02   -0.11773E-03   -0.78419E-05    16   0.706E-02    0.135E-02
DAV:   7    -0.194826279325E+02   -0.27746E-03   -0.73948E-05    24   0.573E-02    0.125E-02
DAV:   8    -0.194826825881E+02   -0.54656E-04   -0.15101E-05    32   0.270E-02    0.613E-03
DAV:   9    -0.194828127380E+02   -0.13015E-03   -0.38657E-05    16   0.293E-02    0.169E-03
DAV:  10    -0.194828341781E+02   -0.21440E-04   -0.47178E-06    24   0.126E-02    0.339E-03
DAV:  11    -0.194828462070E+02   -0.12029E-04   -0.24746E-06    16   0.706E-03    0.960E-04
DAV:  12    -0.194828484261E+02   -0.22192E-05   -0.58662E-07    24   0.421E-03    0.733E-04
DAV:  13    -0.194828489353E+02   -0.50912E-06   -0.71866E-08    16   0.111E-03
   8 F= -.19482849E+02 E0= -.19486714E+02  d E =-.805940E-02
       N       E                     dE             d eps       ncg     rms          rms(c)
DAV:   1    -0.194204528728E+02    0.62396E-01   -0.19271E+01    16   0.439E+01    0.835E-01
DAV:   2    -0.194322467388E+02   -0.11794E-01   -0.20685E-01    24   0.376E+00    0.514E-01
DAV:   3    -0.194290331514E+02    0.32136E-02   -0.92628E-03    24   0.618E-01    0.303E-01
DAV:   4    -0.194293098703E+02   -0.27672E-03   -0.80069E-03    16   0.638E-01    0.915E-02
DAV:   5    -0.194293473036E+02   -0.37433E-04   -0.14612E-03    16   0.279E-01    0.211E-02
DAV:   6    -0.194295034210E+02   -0.15612E-03   -0.33981E-05    16   0.584E-02    0.120E-02
DAV:   7    -0.194298463873E+02   -0.34297E-03   -0.79319E-05    16   0.549E-02    0.859E-03
DAV:   8    -0.194299490660E+02   -0.10268E-03   -0.15026E-05    24   0.252E-02    0.432E-03
DAV:   9    -0.194300528843E+02   -0.10382E-03   -0.22772E-05    16   0.225E-02    0.156E-03
DAV:  10    -0.194300785447E+02   -0.25660E-04   -0.38355E-06    24   0.949E-03    0.159E-03
DAV:  11    -0.194300871477E+02   -0.86029E-05   -0.14302E-06    16   0.479E-03    0.547E-04
DAV:  12    -0.194300885387E+02   -0.13910E-05   -0.23693E-07    24   0.268E-03    0.453E-04
DAV:  13    -0.194300888613E+02   -0.32262E-06   -0.51009E-08    16   0.111E-03
   9 F= -.19430089E+02 E0= -.19433954E+02  d E =0.527601E-01
       N       E                     dE             d eps       ncg     rms          rms(c)
DAV:   1    -0.194783007262E+02   -0.48212E-01   -0.16319E+01    16   0.392E+01    0.735E-01
DAV:   2    -0.194799756365E+02   -0.16749E-02   -0.85053E-02    24   0.277E+00    0.409E-01
DAV:   3    -0.194784213115E+02    0.15543E-02   -0.52218E-03    16   0.596E-01    0.152E-01
DAV:   4    -0.194784689842E+02   -0.47673E-04   -0.10267E-03    32   0.262E-01    0.434E-02
DAV:   5    -0.194785585240E+02   -0.89540E-04   -0.47425E-05    16   0.604E-02    0.159E-02
DAV:   6    -0.194786601129E+02   -0.10159E-03   -0.14619E-05    16   0.264E-02    0.460E-03
DAV:   7    -0.194787734062E+02   -0.11329E-03   -0.19194E-05    16   0.207E-02    0.375E-03
DAV:   8    -0.194788192501E+02   -0.45844E-04   -0.78961E-06    24   0.130E-02    0.176E-03
DAV:   9    -0.194788419867E+02   -0.22737E-04   -0.41381E-06    16   0.782E-03    0.883E-04
DAV:  10    -0.194788466376E+02   -0.46509E-05   -0.55721E-07    24   0.324E-03    0.436E-04
DAV:  11    -0.194788484507E+02   -0.18130E-05   -0.26377E-07    16   0.178E-03    0.134E-04
DAV:  12    -0.194788488464E+02   -0.39572E-06   -0.35950E-08    16   0.768E-04
  10 F= -.19478849E+02 E0= -.19482714E+02  d E =-.487600E-01
       N       E                     dE             d eps       ncg     rms          rms(c)
DAV:   1    -0.192056175669E+02    0.27323E+00   -0.14499E+02    16   0.114E+02    0.223E+00
DAV:   2    -0.193172071778E+02   -0.11159E+00   -0.15654E+00    16   0.112E+01    0.146E+00
DAV:   3    -0.192940100928E+02    0.23197E-01   -0.53428E-02    32   0.190E+00    0.921E-01
DAV:   4    -0.192904099648E+02    0.36001E-02   -0.50846E-02    16   0.183E+00    0.214E-01
DAV:   5    -0.192911283920E+02   -0.71843E-03   -0.47013E-03    32   0.579E-01    0.900E-02
DAV:   6    -0.192915991341E+02   -0.47074E-03   -0.16240E-04    16   0.983E-02    0.454E-02
DAV:   7    -0.192927142542E+02   -0.11151E-02   -0.44355E-04    16   0.141E-01    0.234E-02
DAV:   8    -0.192934767084E+02   -0.76245E-03   -0.29348E-04    16   0.873E-02    0.778E-03
DAV:   9    -0.192937134053E+02   -0.23670E-03   -0.61420E-05    16   0.342E-02    0.603E-03
DAV:  10    -0.192938449215E+02   -0.13152E-03   -0.40700E-05    24   0.248E-02    0.304E-03
DAV:  11    -0.192938640345E+02   -0.19113E-04   -0.36356E-06    16   0.744E-03    0.136E-03
DAV:  12    -0.192938762055E+02   -0.12171E-04   -0.33579E-06    24   0.618E-03    0.648E-04
DAV:  13    -0.192938769204E+02   -0.71493E-06   -0.40825E-08    24   0.114E-03
  11 F= -.19293877E+02 E0= -.19297742E+02  d E =0.184972E+00
       N       E                     dE             d eps       ncg     rms          rms(c)
DAV:   1    -0.194275624594E+02   -0.13369E+00   -0.88208E+01    16   0.915E+01    0.173E+00
DAV:   2    -0.195119660019E+02   -0.84404E-01   -0.13421E+00    24   0.980E+00    0.120E+00
DAV:   3    -0.194899650274E+02    0.22001E-01   -0.53791E-02    24   0.155E+00    0.709E-01
DAV:   4    -0.194899979726E+02   -0.32945E-04   -0.77579E-02    32   0.201E+00    0.283E-01
DAV:   5    -0.194888882191E+02    0.11098E-02   -0.11208E-02    16   0.775E-01    0.878E-02
DAV:   6    -0.194892140735E+02   -0.32585E-03   -0.36608E-04    32   0.160E-01    0.411E-02
DAV:   7    -0.194899182071E+02   -0.70413E-03   -0.35599E-04    24   0.134E-01    0.239E-02
DAV:   8    -0.194903709250E+02   -0.45272E-03   -0.12807E-04    32   0.686E-02    0.101E-02
DAV:   9    -0.194908276238E+02   -0.45670E-03   -0.13394E-04    16   0.529E-02    0.474E-03
DAV:  10    -0.194909326548E+02   -0.10503E-03   -0.20543E-05    24   0.200E-02    0.246E-03
DAV:  11    -0.194909807176E+02   -0.48063E-04   -0.12381E-05    16   0.124E-02    0.925E-04
DAV:  12    -0.194909871578E+02   -0.64403E-05   -0.11662E-06    32   0.364E-03    0.436E-04
DAV:  13    -0.194909881627E+02   -0.10049E-05   -0.15959E-07    16   0.169E-03    0.224E-04
DAV:  14    -0.194909884165E+02   -0.25380E-06   -0.25301E-08    16   0.720E-04
  12 F= -.19490988E+02 E0= -.19494854E+02  d E =-.197111E+00
       N       E                     dE             d eps       ncg     rms          rms(c)
DAV:   1    -0.194911266388E+02   -0.13848E-03   -0.11753E-01    16   0.331E+00    0.102E-01
DAV:   2    -0.194910049414E+02    0.12170E-03   -0.14727E-03    24   0.318E-01    0.538E-02
DAV:   3    -0.194909620502E+02    0.42891E-04   -0.19562E-04    16   0.125E-01    0.182E-02
DAV:   4    -0.194909643474E+02   -0.22972E-05   -0.29189E-05    16   0.467E-02    0.756E-03
DAV:   5    -0.194909655655E+02   -0.12180E-05   -0.22417E-06    16   0.134E-02    0.248E-03
DAV:   6    -0.194909658053E+02   -0.23984E-06   -0.65650E-07    16   0.775E-03
  13 F= -.19490966E+02 E0= -.19494831E+02  d E =0.226112E-04
       N       E                     dE             d eps       ncg     rms          rms(c)
DAV:   1    -0.194909634539E+02    0.21115E-05   -0.48289E-01    16   0.687E+00    0.117E-01
DAV:   2    -0.194910698218E+02   -0.10637E-03   -0.26755E-03    32   0.486E-01    0.727E-02
DAV:   3    -0.194910487157E+02    0.21106E-04   -0.24309E-04    16   0.114E-01    0.279E-02
DAV:   4    -0.194910566980E+02   -0.79823E-05   -0.31520E-05    24   0.491E-02    0.836E-03
DAV:   5    -0.194910616745E+02   -0.49765E-05   -0.95335E-06    16   0.224E-02    0.307E-03
DAV:   6    -0.194910731322E+02   -0.11458E-04   -0.24576E-06    16   0.103E-02    0.213E-03
DAV:   7    -0.194910785103E+02   -0.53780E-05   -0.11022E-06    24   0.603E-03    0.117E-03
DAV:   8    -0.194910858000E+02   -0.72897E-05   -0.10107E-06    16   0.407E-03    0.836E-04
DAV:   9    -0.194910882045E+02   -0.24045E-05   -0.36383E-07    24   0.291E-03    0.255E-04
DAV:  10    -0.194910895391E+02   -0.13346E-05   -0.21736E-07    16   0.174E-03    0.219E-04
DAV:  11    -0.194910896191E+02   -0.80040E-07   -0.64317E-09    24   0.398E-04
  14 F= -.19491090E+02 E0= -.19494955E+02  d E =-.123814E-03
       N       E                     dE             d eps       ncg     rms          rms(c)
DAV:   1    -0.194910547418E+02    0.34797E-04   -0.68241E-02    16   0.251E+00    0.593E-02
DAV:   2    -0.194910938930E+02   -0.39151E-04   -0.86768E-04    16   0.255E-01    0.306E-02
DAV:   3    -0.194910901409E+02    0.37521E-05   -0.27682E-05    16   0.532E-02    0.140E-02
DAV:   4    -0.194910923729E+02   -0.22320E-05   -0.10556E-05    24   0.286E-02    0.394E-03
DAV:   5    -0.194910927862E+02   -0.41330E-06   -0.69732E-07    16   0.760E-03
  15 F= -.19491093E+02 E0= -.19494958E+02  d E =-.316702E-05
       N       E                     dE             d eps       ncg     rms          rms(c)
DAV:   1    -0.194914026538E+02   -0.31028E-03   -0.59493E-01    16   0.740E+00    0.140E-01
DAV:   2    -0.194915308939E+02   -0.12824E-03   -0.38071E-03    24   0.578E-01    0.780E-02
DAV:   3    -0.194914978081E+02    0.33086E-04   -0.15049E-04    16   0.101E-01    0.368E-02
DAV:   4    -0.194915174777E+02   -0.19670E-04   -0.81917E-05    24   0.780E-02    0.692E-03
DAV:   5    -0.194915201740E+02   -0.26963E-05   -0.91448E-06    16   0.266E-02    0.355E-03
DAV:   6    -0.194915227635E+02   -0.25895E-05   -0.55371E-07    16   0.600E-03    0.157E-03
DAV:   7    -0.194915257313E+02   -0.29678E-05   -0.35890E-07    16   0.388E-03    0.591E-04
DAV:   8    -0.194915289371E+02   -0.32058E-05   -0.52873E-07    16   0.316E-03    0.618E-04
DAV:   9    -0.194915298539E+02   -0.91679E-06   -0.15389E-07    16   0.195E-03
  16 F= -.19491530E+02 E0= -.19495395E+02  d E =-.437068E-03
       N       E                     dE             d eps       ncg     rms          rms(c)
DAV:   1    -0.194902906456E+02    0.12383E-02   -0.59906E-01    16   0.755E+00    0.139E-01
DAV:   2    -0.194904864950E+02   -0.19585E-03   -0.46112E-03    16   0.604E-01    0.810E-02
DAV:   3    -0.194904281951E+02    0.58300E-04   -0.18437E-04    24   0.126E-01    0.390E-02
DAV:   4    -0.194904440514E+02   -0.15856E-04   -0.98431E-05    16   0.883E-02    0.835E-03
DAV:   5    -0.194904497208E+02   -0.56694E-05   -0.18684E-05    16   0.364E-02    0.426E-03
DAV:   6    -0.194904540698E+02   -0.43491E-05   -0.20542E-06    16   0.103E-02    0.237E-03
DAV:   7    -0.194904605393E+02   -0.64695E-05   -0.92742E-07    16   0.659E-03    0.839E-04
DAV:   8    -0.194904670171E+02   -0.64778E-05   -0.10140E-06    16   0.490E-03    0.105E-03
DAV:   9    -0.194904694504E+02   -0.24334E-05   -0.35906E-07    24   0.285E-03    0.344E-04
DAV:  10    -0.194904703641E+02   -0.91366E-06   -0.11612E-07    16   0.136E-03
  17 F= -.19490470E+02 E0= -.19494336E+02  d E =0.105949E-02
       N       E                     dE             d eps       ncg     rms          rms(c)
DAV:   1    -0.194908341848E+02   -0.36473E-03   -0.10540E-01    16   0.327E+00    0.670E-02
DAV:   2    -0.194908904970E+02   -0.56312E-04   -0.12538E-03    32   0.297E-01    0.434E-02
DAV:   3    -0.194908647150E+02    0.25782E-04   -0.77361E-05    16   0.807E-02    0.183E-02
DAV:   4    -0.194908671483E+02   -0.24333E-05   -0.28379E-05    16   0.482E-02    0.490E-03
DAV:   5    -0.194908682032E+02   -0.10549E-05   -0.40979E-06    16   0.178E-02    0.280E-03
DAV:   6    -0.194908694689E+02   -0.12657E-05   -0.37455E-07    16   0.455E-03    0.128E-03
DAV:   7    -0.194908705998E+02   -0.11309E-05   -0.26478E-07    16   0.411E-03    0.381E-04
DAV:   8    -0.194908717538E+02   -0.11540E-05   -0.12719E-07    24   0.197E-03    0.429E-04
DAV:   9    -0.194908723502E+02   -0.59637E-06   -0.68160E-08    16   0.110E-03
  18 F= -.19490872E+02 E0= -.19494738E+02  d E =-.401986E-03
       N       E                     dE             d eps       ncg     rms          rms(c)
DAV:   1    -0.194913713631E+02   -0.49961E-03   -0.80393E-01    16   0.859E+00    0.164E-01
DAV:   2    -0.194915329293E+02   -0.16157E-03   -0.48694E-03    24   0.652E-01    0.912E-02
DAV:   3    -0.194914862294E+02    0.46700E-04   -0.20243E-04    16   0.124E-01    0.381E-02
DAV:   4    -0.194915122927E+02   -0.26063E-04   -0.89446E-05    24   0.800E-02    0.764E-03
DAV:   5    -0.194915155063E+02   -0.32136E-05   -0.63738E-06    24   0.228E-02    0.366E-03
DAV:   6    -0.194915181315E+02   -0.26252E-05   -0.59982E-07    16   0.632E-03    0.114E-03
DAV:   7    -0.194915204208E+02   -0.22892E-05   -0.19825E-07    16   0.250E-03    0.524E-04
DAV:   8    -0.194915228524E+02   -0.24316E-05   -0.37206E-07    16   0.215E-03    0.342E-04
DAV:   9    -0.194915235289E+02   -0.67647E-06   -0.85816E-08    16   0.114E-03
  19 F= -.19491524E+02 E0= -.19495389E+02  d E =-.651179E-03
       N       E                     dE             d eps       ncg     rms          rms(c)
DAV:   1    -0.194894639100E+02    0.20589E-02   -0.24395E+00    16   0.150E+01    0.267E-01
DAV:   2    -0.194900240604E+02   -0.56015E-03   -0.13935E-02    16   0.109E+00    0.152E-01
DAV:   3    -0.194898596150E+02    0.16445E-03   -0.61217E-04    32   0.233E-01    0.583E-02
DAV:   4    -0.194899004153E+02   -0.40800E-04   -0.20263E-04    16   0.124E-01    0.112E-02
DAV:   5    -0.194899210685E+02   -0.20653E-04   -0.17359E-05    16   0.377E-02    0.468E-03
DAV:   6    -0.194899364924E+02   -0.15424E-04   -0.19301E-06    16   0.104E-02    0.227E-03
DAV:   7    -0.194899617507E+02   -0.25258E-04   -0.44625E-06    16   0.895E-03    0.152E-03
DAV:   8    -0.194899684588E+02   -0.67081E-05   -0.67656E-07    24   0.361E-03    0.915E-04
DAV:   9    -0.194899741288E+02   -0.56700E-05   -0.91995E-07    16   0.325E-03    0.442E-04
DAV:  10    -0.194899756309E+02   -0.15021E-05   -0.26556E-07    24   0.211E-03    0.328E-04
DAV:  11    -0.194899758696E+02   -0.23864E-06   -0.37824E-08    16   0.858E-04
  20 F= -.19489976E+02 E0= -.19493841E+02  d E =0.154766E-02
       N       E                     dE             d eps       ncg     rms          rms(c)
DAV:   1    -0.194913999877E+02   -0.14244E-02   -0.11297E+00    16   0.102E+01    0.189E-01
DAV:   2    -0.194915513838E+02   -0.15140E-03   -0.69449E-03    16   0.763E-01    0.104E-01
DAV:   3    -0.194914730615E+02    0.78322E-04   -0.23996E-04    24   0.149E-01    0.495E-02
DAV:   4    -0.194914992088E+02   -0.26147E-04   -0.16893E-04    16   0.114E-01    0.888E-03
DAV:   5    -0.194915115734E+02   -0.12365E-04   -0.30721E-05    16   0.467E-02    0.525E-03
DAV:   6    -0.194915143157E+02   -0.27423E-05   -0.23976E-06    24   0.122E-02    0.259E-03
DAV:   7    -0.194915257546E+02   -0.11439E-04   -0.14215E-06    16   0.667E-03    0.118E-03
DAV:   8    -0.194915318350E+02   -0.60804E-05   -0.66101E-07    24   0.367E-03    0.814E-04
DAV:   9    -0.194915375041E+02   -0.56690E-05   -0.10596E-06    16   0.386E-03    0.438E-04
DAV:  10    -0.194915387924E+02   -0.12883E-05   -0.20644E-07    24   0.178E-03    0.183E-04
DAV:  11    -0.194915389737E+02   -0.18135E-06   -0.16685E-08    16   0.476E-04
  21 F= -.19491539E+02 E0= -.19495404E+02  d E =-.156310E-02
