 vasp.5.4.4.18Apr17-6-g9f103f2a35 (build Mar 30 2021 17:29:28) complex           
 executed on             LinuxGNU date 2021.03.31  17:11:03
 running on    6 total cores
 each image running on    2 cores
 distrk:  each k-point on    2 cores,    1 groups
 distr:  one band on NCORES_PER_BAND=   1 cores,    2 groups


--------------------------------------------------------------------------------------------------------


 INCAR:
 POTCAR:    PAW_PBE H 15Jun2001                   
 POTCAR:    PAW_PBE N 08Apr2002                   
 POTCAR:    PAW_PBE H 15Jun2001                   
   VRHFIN =H: ultrasoft test                                                    
   LEXCH  = PE                                                                  
   EATOM  =    12.4884 eV,    0.9179 Ry                                         
                                                                                
   TITEL  = PAW_PBE H 15Jun2001                                                 
   LULTRA =        F    use ultrasoft PP ?                                      
   IUNSCR =        0    unscreen: 0-lin 1-nonlin 2-no                           
   RPACOR =    0.000    partial core radius                                     
   POMASS =    1.000; ZVAL   =    1.000    mass and valenz                      
   RCORE  =    1.100    outmost cutoff radius                                   
   RWIGS  =    0.700; RWIGS  =    0.370    wigner-seitz radius (au A)           
   ENMAX  =  250.000; ENMIN  =  200.000 eV                                      
   RCLOC  =    0.701    cutoff for local pot                                    
   LCOR   =        T    correct aug charges                                     
   LPAW   =        T    paw PP                                                  
   EAUG   =  400.000                                                            
   RMAX   =    1.123    core radius for proj-oper                               
   RAUG   =    1.200    factor for augmentation sphere                          
   RDEP   =    1.112    radius for radial grids                                 
   RDEPT  =    0.926    core radius for aug-charge                              
                                                                                
   Atomic configuration                                                         
    2 entries                                                                   
     n  l   j            E        occ.                                          
     1  0  0.50        -6.4927   1.0000                                         
     2  1  0.50        -3.4015   0.0000                                         
   Description                                                                  
     l       E           TYP  RCUT    TYP  RCUT                                 
     0     -6.4927494     23  1.100                                             
     0      6.8029130     23  1.100                                             
     1     -4.0817478     23  1.100                                             
  local pseudopotential read in
  atomic valenz-charges read in
  non local Contribution for L=           0  read in
    real space projection operators read in
  non local Contribution for L=           0  read in
    real space projection operators read in
  non local Contribution for L=           1  read in
    real space projection operators read in
    PAW grid and wavefunctions read in

   number of l-projection  operators is LMAX  =           3
   number of lm-projection operators is LMMAX =           5

 POTCAR:    PAW_PBE N 08Apr2002                   
   VRHFIN =N: s2p3                                                              
   LEXCH  = PE                                                                  
   EATOM  =   264.5486 eV,   19.4438 Ry                                         
                                                                                
   TITEL  = PAW_PBE N 08Apr2002                                                 
   LULTRA =        F    use ultrasoft PP ?                                      
   IUNSCR =        1    unscreen: 0-lin 1-nonlin 2-no                           
   RPACOR =    1.200    partial core radius                                     
   POMASS =   14.001; ZVAL   =    5.000    mass and valenz                      
   RCORE  =    1.500    outmost cutoff radius                                   
   RWIGS  =    1.400; RWIGS  =    0.741    wigner-seitz radius (au A)           
   ENMAX  =  400.000; ENMIN  =  300.000 eV                                      
   ICORE  =        2    local potential                                         
   LCOR   =        T    correct aug charges                                     
   LPAW   =        T    paw PP                                                  
   EAUG   =  627.112                                                            
   DEXC   =    0.000                                                            
   RMAX   =    1.529    core radius for proj-oper                               
   RAUG   =    1.300    factor for augmentation sphere                          
   RDEP   =    1.514    radius for radial grids                                 
   RDEPT  =    1.338    core radius for aug-charge                              
                                                                                
   Atomic configuration                                                         
    4 entries                                                                   
     n  l   j            E        occ.                                          
     1  0  0.50      -384.7179   2.0000                                         
     2  0  0.50       -18.5828   2.0000                                         
     2  1  0.50        -7.0898   3.0000                                         
     3  2  1.50        -6.8029   0.0000                                         
   Description                                                                  
     l       E           TYP  RCUT    TYP  RCUT                                 
     0    -18.5828119     23  1.200                                             
     0    -13.5018863     23  1.200                                             
     1     -7.0897853     23  1.500                                             
     1      9.5240782     23  1.500                                             
     2     -6.8029130      7  1.500                                             
  local pseudopotential read in
  partial core-charges read in
  partial kinetic energy density read in
  atomic valenz-charges read in
  non local Contribution for L=           0  read in
    real space projection operators read in
  non local Contribution for L=           0  read in
    real space projection operators read in
  non local Contribution for L=           1  read in
    real space projection operators read in
  non local Contribution for L=           1  read in
    real space projection operators read in
    PAW grid and wavefunctions read in

   number of l-projection  operators is LMAX  =           4
   number of lm-projection operators is LMMAX =           8

  PAW_PBE H 15Jun2001                   :
 energy of atom  1       EATOM=  -12.4884
 kinetic energy error for atom=    0.0098 (will be added to EATOM!!)
  PAW_PBE N 08Apr2002                   :
 energy of atom  2       EATOM= -264.5486
 kinetic energy error for atom=    0.0736 (will be added to EATOM!!)


 POSCAR: # Compound: H3N. Old comment: H3N       
  positions in direct lattice
  No initial velocities read in
 exchange correlation table for  LEXCH =        8
   RHO(1)=    0.500       N(1)  =     2000
   RHO(2)=  100.500       N(2)  =     4000

 VTST: version 3.2, (02/03/18)

 CHAIN: initializing optimizer
 
 OPT: Using LBFGS optimizer
 OPT: LBFGS, Init
 OPT: LBFGS, MEMORY             20
 OPT: LBFGS, IMAGES              3
 OPT: LBFGS, MAXMOVE      0.200000
 OPT: LBFGS, LGLOBAL      T
 OPT: LBFGS, INVCURV      0.010000
 OPT: LBFGS, LLINEOPT      F
 OPT: LBFGS, FDSTEP       0.005000
 OPT: LBFGS, LAUTOSCALE      T
 OPT: LBFGS, DAMPING      2.000000
 
 CHAIN: Read ICHAIN            0
 CHAIN: Running the NEB
 NEB:          SPRING     -5.000000
 NEB:          LCLIMB      T
 NEB:     LTANGENTOLD      F
 NEB:           LDNEB      F
 NEB:        LDNEBORG      F
 NEB:        LNEBCELL      F
 NEB:          EFIRST      0.000000
 NEB:           ELAST      0.000000

 POSCAR: # Compound: H3N. Old comment: H3N       
  positions in direct lattice
  No initial velocities read in

 POSCAR: # Compound: H3N. Old comment: H3N       
  positions in direct lattice
  No initial velocities read in



--------------------------------------------------------------------------------------------------------


 ion  position               nearest neighbor table
   1  0.636  0.567  0.475-   4 0.97
   2  0.500  0.365  0.475-   4 0.97
   3  0.364  0.567  0.475-   4 0.97
   4  0.500  0.500  0.500-   1 0.97   3 0.97   2 0.97

  LATTYP: Found a simple orthorhombic cell.
 ALAT       =     6.0000000000
 B/A-ratio  =     1.1666666667
 C/A-ratio  =     1.3333333333
  
  Lattice vectors:
  
 A1 = (   6.0000000000,   0.0000000000,   0.0000000000)
 A2 = (   0.0000000000,   7.0000000000,   0.0000000000)
 A3 = (   0.0000000000,   0.0000000000,   8.0000000000)


Analysis of symmetry for initial positions (statically):
=====================================================================
 Subroutine PRICEL returns:
 Original cell was already a primitive cell.
 

 Routine SETGRP: Setting up the symmetry group for a 
 simple orthorhombic supercell.


 Subroutine GETGRP returns: Found  2 space group operations
 (whereof  2 operations were pure point group operations)
 out of a pool of  8 trial point group operations.


The static configuration has the point symmetry C_1h.


Analysis of symmetry for dynamics (positions and initial velocities):
=====================================================================
 Subroutine PRICEL returns:
 Original cell was already a primitive cell.
 

 Routine SETGRP: Setting up the symmetry group for a 
 simple orthorhombic supercell.


 Subroutine GETGRP returns: Found  2 space group operations
 (whereof  2 operations were pure point group operations)
 out of a pool of  8 trial point group operations.


The dynamic configuration has the point symmetry C_1h.


 Subroutine INISYM returns: Found  2 space group operations
 (whereof  2 operations are pure point group operations),
 and found     1 'primitive' translations



 KPOINTS: # No comment                            

Automatic generation of k-mesh.
Space group operators:
 irot       det(A)        alpha          n_x          n_y          n_z        tau_x        tau_y        tau_z
    1     1.000000     0.000000     1.000000     0.000000     0.000000     0.000000     0.000000     0.000000
    2    -1.000000   180.000000     1.000000     0.000000     0.000000     0.000000     0.000000     0.000000
 
 Subroutine IBZKPT returns following result:
 ===========================================
 
 Found      1 irreducible k-points:
 
 Following reciprocal coordinates:
            Coordinates               Weight
  0.000000  0.000000  0.000000      1.000000
 
 Following cartesian coordinates:
            Coordinates               Weight
  0.000000  0.000000  0.000000      1.000000
 


--------------------------------------------------------------------------------------------------------




 Dimension of arrays:
   k-points           NKPTS =      1   k-points in BZ     NKDIM =      1   number of bands    NBANDS=      8
   number of dos      NEDOS =    301   number of ions     NIONS =      4
   non local maximal  LDIM  =      4   non local SUM 2l+1 LMDIM =      8
   total plane-waves  NPLWV =  43200
   max r-space proj   IRMAX =      1   max aug-charges    IRDMAX=   1781
   dimension x,y,z NGX =    30 NGY =   36 NGZ =   40
   dimension x,y,z NGXF=    60 NGYF=   72 NGZF=   80
   support grid    NGXF=    60 NGYF=   72 NGZF=   80
   ions per type =               3   1
   NGX,Y,Z   is equivalent  to a cutoff of   8.31,  8.55,  8.31 a.u.
   NGXF,Y,Z  is equivalent  to a cutoff of  16.62, 17.10, 16.62 a.u.

 SYSTEM =  unknown system                          
 POSCAR =  # Compound: H3N. Old comment: H3N       

 Startparameter for this run:
   NWRITE =      2    write-flag & timer
   PREC   = normal    normal or accurate (medium, high low for compatibility)
   ISTART =      1    job   : 0-new  1-cont  2-samecut
   ICHARG =      0    charge: 1-file 2-atom 10-const
   ISPIN  =      1    spin polarized calculation?
   LNONCOLLINEAR =      F non collinear calculations
   LSORBIT =      F    spin-orbit coupling
   INIWAV =      1    electr: 0-lowe 1-rand  2-diag
   LASPH  =      F    aspherical Exc in radial PAW
   METAGGA=      F    non-selfconsistent MetaGGA calc.

 Electronic Relaxation 1
   ENCUT  =  400.0 eV  29.40 Ry    5.42 a.u.   9.78 11.42 13.05*2*pi/ulx,y,z
   ENINI  =  400.0     initial cutoff
   ENAUG  =  627.1 eV  augmentation charge cutoff
   NELM   =     60;   NELMIN=  2; NELMDL=  0     # of ELM steps 
   EDIFF  = 0.1E-05   stopping-criterion for ELM
   LREAL  =      F    real-space projection
   NLSPLINE    = F    spline interpolate recip. space projectors
   LCOMPAT=      F    compatible to vasp.4.4
   GGA_COMPAT  = T    GGA compatible to vasp.4.4-vasp.4.6
   LMAXPAW     = -100 max onsite density
   LMAXMIX     =    2 max onsite mixed and CHGCAR
   VOSKOWN=      0    Vosko Wilk Nusair interpolation
   ROPT   =    0.00000   0.00000
 Ionic relaxation
   EDIFFG = -.3E-01   stopping-criterion for IOM
   NSW    =     50    number of steps for IOM
   NBLOCK =      1;   KBLOCK =     50    inner block; outer block 
   IBRION =      3    ionic relax: 0-MD 1-quasi-New 2-CG
   NFREE  =      0    steps in history (QN), initial steepest desc. (CG)
   ISIF   =      2    stress and relaxation
   IWAVPR =     11    prediction:  0-non 1-charg 2-wave 3-comb
   ISYM   =      2    0-nonsym 1-usesym 2-fastsym
   LCORR  =      T    Harris-Foulkes like correction to forces

   POTIM  = 0.0000    time-step for ionic-motion
   TEIN   =    0.0    initial temperature
   TEBEG  =    0.0;   TEEND  =   0.0 temperature during run
   SMASS  =  -3.00    Nose mass-parameter (am)
   estimated Nose-frequenzy (Omega)   =  0.10E-29 period in steps =  0.00 mass=  -0.823E-27a.u.
   SCALEE = 1.0000    scale energy and forces
   NPACO  =    256;   APACO  = 16.0  distance and # of slots for P.C.
   PSTRESS=    0.0 pullay stress

  Mass of Ions in am
   POMASS =   1.00 14.00
  Ionic Valenz
   ZVAL   =   1.00  5.00
  Atomic Wigner-Seitz radii
   RWIGS  =  -1.00 -1.00
  virtual crystal weights 
   VCA    =   1.00  1.00
   NELECT =       8.0000    total number of electrons
   NUPDOWN=      -1.0000    fix difference up-down

 DOS related values:
   EMIN   =  10.00;   EMAX   =-10.00  energy-range for DOS
   EFERMI =   0.00
   ISMEAR =     1;   SIGMA  =   0.20  broadening in eV -4-tet -1-fermi 0-gaus

 Electronic relaxation 2 (details)
   IALGO  =     38    algorithm
   LDIAG  =      T    sub-space diagonalisation (order eigenvalues)
   LSUBROT=      F    optimize rotation matrix (better conditioning)
   TURBO    =      0    0=normal 1=particle mesh
   IRESTART =      0    0=no restart 2=restart with 2 vectors
   NREBOOT  =      0    no. of reboots
   NMIN     =      0    reboot dimension
   EREF     =   0.00    reference energy to select bands
   IMIX   =      4    mixing-type and parameters
     AMIX     =   0.40;   BMIX     =  1.00
     AMIX_MAG =   1.60;   BMIX_MAG =  1.00
     AMIN     =   0.10
     WC   =   100.;   INIMIX=   1;  MIXPRE=   1;  MAXMIX= -45

 Intra band minimization:
   WEIMIN = 0.0010     energy-eigenvalue tresh-hold
   EBREAK =  0.31E-07  absolut break condition
   DEPER  =   0.30     relativ break condition  

   TIME   =   0.40     timestep for ELM

  volume/ion in A,a.u.               =      84.00       566.86
  Fermi-wavevector in a.u.,A,eV,Ry     =   0.470968  0.890001  3.017925  0.221811
  Thomas-Fermi vector in A             =   1.463355

 Write flags
   LWAVE        =      T    write WAVECAR
   LDOWNSAMPLE  =      F    k-point downsampling of WAVECAR
   LCHARG       =      T    write CHGCAR
   LVTOT        =      F    write LOCPOT, total local potential
   LVHAR        =      F    write LOCPOT, Hartree potential only
   LELF         =      F    write electronic localiz. function (ELF)
   LORBIT       =      0    0 simple, 1 ext, 2 COOP (PROOUT), +10 PAW based schemes


 Dipole corrections
   LMONO  =      F    monopole corrections only (constant potential shift)
   LDIPOL =      F    correct potential (dipole corrections)
   IDIPOL =      0    1-x, 2-y, 3-z, 4-all directions 
   EPSILON=  1.0000000 bulk dielectric constant

 Exchange correlation treatment:
   GGA     =    --    GGA type
   LEXCH   =     8    internal setting for exchange type
   VOSKOWN=      0    Vosko Wilk Nusair interpolation
   LHFCALC =     F    Hartree Fock is set to
   LHFONE  =     F    Hartree Fock one center treatment
   AEXX    =    0.0000 exact exchange contribution

 Linear response parameters
   LEPSILON=     F    determine dielectric tensor
   LRPA    =     F    only Hartree local field effects (RPA)
   LNABLA  =     F    use nabla operator in PAW spheres
   LVEL    =     F    velocity operator in full k-point grid
   LINTERFAST=   F  fast interpolation
   KINTER  =     0    interpolate to denser k-point grid
   CSHIFT  =0.1000    complex shift for real part using Kramers Kronig
   OMEGAMAX=  -1.0    maximum frequency
   DEG_THRESHOLD= 0.2000000E-02 threshold for treating states as degnerate
   RTIME   =   -0.100 relaxation time in fs
  (WPLASMAI=    0.000 imaginary part of plasma frequency in eV, 0.658/RTIME)
   DFIELD  = 0.0000000 0.0000000 0.0000000 field for delta impulse in time

 Orbital magnetization related:
   ORBITALMAG=     F  switch on orbital magnetization
   LCHIMAG   =     F  perturbation theory with respect to B field
   DQ        =  0.001000  dq finite difference perturbation B field
   LLRAUG    =     F  two centre corrections for induced B field



--------------------------------------------------------------------------------------------------------


 quickmin algorithm: (dynamic with friction)
 charge density and potential will be updated during run
 non-spin polarized calculation
 Variant of blocked Davidson
 Davidson routine will perform the subspace rotation
 perform sub-space diagonalisation
    after iterative eigenvector-optimisation
 modified Broyden-mixing scheme, WC =      100.0
 initial mixing is a Kerker type mixing with AMIX =  0.4000 and BMIX =      1.0000
 Hartree-type preconditioning will be used
 using additional bands            4
 reciprocal scheme for non local part
 use partial core corrections
 calculate Harris-corrections to forces   (improved forces if not selfconsistent)
 use gradient corrections 
 use of overlap-Matrix (Vanderbilt PP)
 Methfessel and Paxton  Order N= 1 SIGMA  =   0.20


--------------------------------------------------------------------------------------------------------


  energy-cutoff  :      400.00
  volume of cell :      336.00
      direct lattice vectors                 reciprocal lattice vectors
     6.000000000  0.000000000  0.000000000     0.166666667  0.000000000  0.000000000
     0.000000000  7.000000000  0.000000000     0.000000000  0.142857143  0.000000000
     0.000000000  0.000000000  8.000000000     0.000000000  0.000000000  0.125000000

  length of vectors
     6.000000000  7.000000000  8.000000000     0.166666667  0.142857143  0.125000000



 old parameters found on file WAVECAR:
  energy-cutoff  :      400.00
  volume of cell :      336.00
      direct lattice vectors                 reciprocal lattice vectors
     6.000000000  0.000000000  0.000000000     0.166666667  0.000000000  0.000000000
     0.000000000  7.000000000  0.000000000     0.000000000  0.142857143  0.000000000
     0.000000000  0.000000000  8.000000000     0.000000000  0.000000000  0.125000000

  length of vectors


 k-points in units of 2pi/SCALE and weight: # No comment                            
   0.00000000  0.00000000  0.00000000       1.000

 k-points in reciprocal lattice and weights: # No comment                            
   0.00000000  0.00000000  0.00000000       1.000

 position of ions in fractional coordinates (direct lattice) 
   0.63642800  0.56745700  0.47541775
   0.50000000  0.36498500  0.47543350
   0.36357200  0.56745700  0.47541775
   0.50000000  0.50000000  0.50000000

 position of ions in cartesian coordinates  (Angst):
   3.81856800  3.97219900  3.80334200
   3.00000000  2.55489500  3.80346800
   2.18143200  3.97219900  3.80334200
   3.00000000  3.50000000  4.00000000



--------------------------------------------------------------------------------------------------------


 k-point  1 :   0.0000 0.0000 0.0000  plane waves:    6075

 maximum and minimum number of plane-waves per node :      6075     6075

 maximum number of plane-waves:      6075
 maximum index in each direction: 
   IXMAX=    9   IYMAX=   11   IZMAX=   13
   IXMIN=   -9   IYMIN=  -11   IZMIN=  -13


 serial   3D FFT for wavefunctions
 parallel 3D FFT for charge:
    minimum data exchange during FFTs selected (reduces bandwidth)


 total amount of memory used by VASP MPI-rank0    49277. kBytes
=======================================================================

   base      :      30000. kBytes
   nonl-proj :       1166. kBytes
   fftplans  :       6115. kBytes
   grid      :      11594. kBytes
   one-center:         12. kBytes
   wavefun   :        390. kBytes

     INWAV:  cpu time    0.0156: real time    0.0021
 Broyden mixing: mesh for mixing (old mesh)
   NGX = 19   NGY = 23   NGZ = 27
  (NGX  = 60   NGY  = 72   NGZ  = 80)
  gives a total of  11799 points

 charge density for first step will be calculated from the start-wavefunctions


--------------------------------------------------------------------------------------------------------


 Maximum index for augmentation-charges          767 (set IRDMAX)


--------------------------------------------------------------------------------------------------------


 initial charge from wavefunction
 First call to EWALD:  gamma=   0.255
 Maximum number of real-space cells 3x 3x 2
 Maximum number of reciprocal cells 2x 3x 3

    FEWALD:  cpu time    0.0000: real time    0.0008


--------------------------------------- Iteration      1(   1)  ---------------------------------------


    POTLOK:  cpu time    0.1406: real time    0.1433
    SETDIJ:  cpu time    0.0000: real time    0.0037
     EDDAV:  cpu time    0.0469: real time    0.0437
       DOS:  cpu time    0.0000: real time    0.0002
    CHARGE:  cpu time    0.0156: real time    0.0147
    MIXING:  cpu time    0.0000: real time    0.0040
    --------------------------------------------
      LOOP:  cpu time    0.2031: real time    0.2096

 eigenvalue-minimisations  :    16
 total energy-change (2. order) :-0.2676678E+02  (-0.2738388E+02)
 number of electron       8.0000064 magnetization 
 augmentation part        0.3511333 magnetization 

 Broyden mixing:
  rms(total) = 0.51768E+01    rms(broyden)= 0.51760E+01
  rms(prec ) = 0.53623E+01
  weight for this iteration     100.00

 Free energy of the ion-electron system (eV)
  ---------------------------------------------------
  alpha Z        PSCENC =         0.68708806
  Ewald energy   TEWEN  =        68.73219124
  -Hartree energ DENC   =      -303.91446954
  -exchange      EXHF   =         0.00000000
  -V(xc)+E(xc)   XCENC  =        28.60170128
  PAW double counting   =      4584.88386173    -4586.16249580
  entropy T*S    EENTRO =         0.01159581
  eigenvalues    EBANDS =      -121.51715579
  atomic energy  EATOM  =       301.91090041
  Solvation  Ediel_sol  =         0.00000000
  ---------------------------------------------------
  free energy    TOTEN  =       -26.76678261 eV

  energy without entropy =      -26.77837842  energy(sigma->0) =      -26.77064788


--------------------------------------------------------------------------------------------------------




--------------------------------------- Iteration      1(   2)  ---------------------------------------


    POTLOK:  cpu time    0.1250: real time    0.1141
    SETDIJ:  cpu time    0.0000: real time    0.0040
     EDDAV:  cpu time    0.0469: real time    0.0435
       DOS:  cpu time    0.0000: real time    0.0002
    CHARGE:  cpu time    0.0156: real time    0.0137
    MIXING:  cpu time    0.0000: real time    0.0045
    --------------------------------------------
      LOOP:  cpu time    0.1875: real time    0.1800

 eigenvalue-minimisations  :    16
 total energy-change (2. order) : 0.5498581E+01  (-0.8551488E+00)
 number of electron       8.0000066 magnetization 
 augmentation part        0.3693607 magnetization 

 Broyden mixing:
  rms(total) = 0.30198E+01    rms(broyden)= 0.30197E+01
  rms(prec ) = 0.31168E+01
  weight for this iteration     100.00

 eigenvalues of (default mixing * dielectric matrix)
  average eigenvalue GAMMA=   2.3841
  2.3841

 Free energy of the ion-electron system (eV)
  ---------------------------------------------------
  alpha Z        PSCENC =         0.68708806
  Ewald energy   TEWEN  =        68.73219124
  -Hartree energ DENC   =      -309.41333565
  -exchange      EXHF   =         0.00000000
  -V(xc)+E(xc)   XCENC  =        28.91473182
  PAW double counting   =      2448.02401837    -2449.47328668
  entropy T*S    EENTRO =         0.01159581
  eigenvalues    EBANDS =      -110.66210478
  atomic energy  EATOM  =       301.91090041
  Solvation  Ediel_sol  =         0.00000000
  ---------------------------------------------------
  free energy    TOTEN  =       -21.26820140 eV

  energy without entropy =      -21.27979721  energy(sigma->0) =      -21.27206667


--------------------------------------------------------------------------------------------------------




--------------------------------------- Iteration      1(   3)  ---------------------------------------


    POTLOK:  cpu time    0.1250: real time    0.1325
    SETDIJ:  cpu time    0.0000: real time    0.0037
     EDDAV:  cpu time    0.0469: real time    0.0390
       DOS:  cpu time    0.0000: real time    0.0001
    CHARGE:  cpu time    0.0156: real time    0.0130
    MIXING:  cpu time    0.0000: real time    0.0048
    --------------------------------------------
      LOOP:  cpu time    0.1875: real time    0.1931

 eigenvalue-minimisations  :    16
 total energy-change (2. order) : 0.1830094E+01  (-0.1523150E+01)
 number of electron       8.0000060 magnetization 
 augmentation part        0.3169979 magnetization 

 Broyden mixing:
  rms(total) = 0.34108E+00    rms(broyden)= 0.34097E+00
  rms(prec ) = 0.48569E+00
  weight for this iteration     100.00

 eigenvalues of (default mixing * dielectric matrix)
  average eigenvalue GAMMA=   1.4763
  2.3880  0.5646

 Free energy of the ion-electron system (eV)
  ---------------------------------------------------
  alpha Z        PSCENC =         0.68708806
  Ewald energy   TEWEN  =        68.73219124
  -Hartree energ DENC   =      -325.68164509
  -exchange      EXHF   =         0.00000000
  -V(xc)+E(xc)   XCENC  =        29.86652141
  PAW double counting   =       691.85993884     -693.62412141
  entropy T*S    EENTRO =         0.01159581
  eigenvalues    EBANDS =       -93.20057693
  atomic energy  EATOM  =       301.91090041
  Solvation  Ediel_sol  =         0.00000000
  ---------------------------------------------------
  free energy    TOTEN  =       -19.43810766 eV

  energy without entropy =      -19.44970347  energy(sigma->0) =      -19.44197293


--------------------------------------------------------------------------------------------------------




--------------------------------------- Iteration      1(   4)  ---------------------------------------


    POTLOK:  cpu time    0.1250: real time    0.1209
    SETDIJ:  cpu time    0.0000: real time    0.0035
     EDDAV:  cpu time    0.0469: real time    0.0419
       DOS:  cpu time    0.0000: real time    0.0002
    CHARGE:  cpu time    0.0156: real time    0.0147
    MIXING:  cpu time    0.0000: real time    0.0066
    --------------------------------------------
      LOOP:  cpu time    0.1875: real time    0.1878

 eigenvalue-minimisations  :    16
 total energy-change (2. order) : 0.1212712E+00  (-0.7703020E-01)
 number of electron       8.0000061 magnetization 
 augmentation part        0.3234479 magnetization 

 Broyden mixing:
  rms(total) = 0.25655E+00    rms(broyden)= 0.25651E+00
  rms(prec ) = 0.35359E+00
  weight for this iteration     100.00

 eigenvalues of (default mixing * dielectric matrix)
  average eigenvalue GAMMA=   1.3908
  2.3574  0.9075  0.9075

 Free energy of the ion-electron system (eV)
  ---------------------------------------------------
  alpha Z        PSCENC =         0.68708806
  Ewald energy   TEWEN  =        68.73219124
  -Hartree energ DENC   =      -322.59022359
  -exchange      EXHF   =         0.00000000
  -V(xc)+E(xc)   XCENC  =        29.68548879
  PAW double counting   =       680.19303726     -681.92341391
  entropy T*S    EENTRO =         0.01159581
  eigenvalues    EBANDS =       -96.02350054
  atomic energy  EATOM  =       301.91090041
  Solvation  Ediel_sol  =         0.00000000
  ---------------------------------------------------
  free energy    TOTEN  =       -19.31683647 eV

  energy without entropy =      -19.32843228  energy(sigma->0) =      -19.32070174


--------------------------------------------------------------------------------------------------------




--------------------------------------- Iteration      1(   5)  ---------------------------------------


    POTLOK:  cpu time    0.1250: real time    0.1233
    SETDIJ:  cpu time    0.0000: real time    0.0043
     EDDAV:  cpu time    0.0625: real time    0.0571
       DOS:  cpu time    0.0000: real time    0.0002
    CHARGE:  cpu time    0.0156: real time    0.0148
    MIXING:  cpu time    0.0156: real time    0.0068
    --------------------------------------------
      LOOP:  cpu time    0.2188: real time    0.2064

 eigenvalue-minimisations  :    24
 total energy-change (2. order) : 0.1036699E+00  (-0.2878146E-01)
 number of electron       8.0000062 magnetization 
 augmentation part        0.3350809 magnetization 

 Broyden mixing:
  rms(total) = 0.12512E+00    rms(broyden)= 0.12510E+00
  rms(prec ) = 0.17064E+00
  weight for this iteration     100.00

 eigenvalues of (default mixing * dielectric matrix)
  average eigenvalue GAMMA=   1.6285
  2.7658  1.9441  0.9021  0.9021

 Free energy of the ion-electron system (eV)
  ---------------------------------------------------
  alpha Z        PSCENC =         0.68708806
  Ewald energy   TEWEN  =        68.73219124
  -Hartree energ DENC   =      -319.86090644
  -exchange      EXHF   =         0.00000000
  -V(xc)+E(xc)   XCENC  =        29.52266721
  PAW double counting   =       686.22746750     -687.92338615
  entropy T*S    EENTRO =         0.01159581
  eigenvalues    EBANDS =       -98.52078422
  atomic energy  EATOM  =       301.91090041
  Solvation  Ediel_sol  =         0.00000000
  ---------------------------------------------------
  free energy    TOTEN  =       -19.21316658 eV

  energy without entropy =      -19.22476239  energy(sigma->0) =      -19.21703185


--------------------------------------------------------------------------------------------------------




--------------------------------------- Iteration      1(   6)  ---------------------------------------


    POTLOK:  cpu time    0.0938: real time    0.1078
    SETDIJ:  cpu time    0.0000: real time    0.0030
     EDDAV:  cpu time    0.0469: real time    0.0429
       DOS:  cpu time    0.0000: real time    0.0001
    CHARGE:  cpu time    0.0156: real time    0.0126
    MIXING:  cpu time    0.0156: real time    0.0065
    --------------------------------------------
      LOOP:  cpu time    0.1719: real time    0.1729

 eigenvalue-minimisations  :    16
 total energy-change (2. order) :-0.8659118E-03  (-0.2635068E-01)
 number of electron       8.0000063 magnetization 
 augmentation part        0.3449319 magnetization 

 Broyden mixing:
  rms(total) = 0.83382E-01    rms(broyden)= 0.83346E-01
  rms(prec ) = 0.11104E+00
  weight for this iteration     100.00

 eigenvalues of (default mixing * dielectric matrix)
  average eigenvalue GAMMA=   1.5121
  2.5378  1.8632  0.9713  1.0942  1.0942

 Free energy of the ion-electron system (eV)
  ---------------------------------------------------
  alpha Z        PSCENC =         0.68708806
  Ewald energy   TEWEN  =        68.73219124
  -Hartree energ DENC   =      -317.56767163
  -exchange      EXHF   =         0.00000000
  -V(xc)+E(xc)   XCENC  =        29.37778866
  PAW double counting   =       649.21168369     -650.87651730
  entropy T*S    EENTRO =         0.01159581
  eigenvalues    EBANDS =      -100.70109142
  atomic energy  EATOM  =       301.91090041
  Solvation  Ediel_sol  =         0.00000000
  ---------------------------------------------------
  free energy    TOTEN  =       -19.21403249 eV

  energy without entropy =      -19.22562830  energy(sigma->0) =      -19.21789776


--------------------------------------------------------------------------------------------------------




--------------------------------------- Iteration      1(   7)  ---------------------------------------


    POTLOK:  cpu time    0.1094: real time    0.1138
    SETDIJ:  cpu time    0.0000: real time    0.0037
     EDDAV:  cpu time    0.0781: real time    0.0836
       DOS:  cpu time    0.0000: real time    0.0002
    CHARGE:  cpu time    0.0156: real time    0.0147
    MIXING:  cpu time    0.0156: real time    0.0056
    --------------------------------------------
      LOOP:  cpu time    0.2188: real time    0.2215

 eigenvalue-minimisations  :    32
 total energy-change (2. order) : 0.5222185E-02  (-0.3871579E-02)
 number of electron       8.0000063 magnetization 
 augmentation part        0.3410241 magnetization 

 Broyden mixing:
  rms(total) = 0.25466E-01    rms(broyden)= 0.25461E-01
  rms(prec ) = 0.46357E-01
  weight for this iteration     100.00

 eigenvalues of (default mixing * dielectric matrix)
  average eigenvalue GAMMA=   1.6153
  2.7212  2.3657  1.1747  1.1747  1.1278  1.1278

 Free energy of the ion-electron system (eV)
  ---------------------------------------------------
  alpha Z        PSCENC =         0.68708806
  Ewald energy   TEWEN  =        68.73219124
  -Hartree energ DENC   =      -318.47250554
  -exchange      EXHF   =         0.00000000
  -V(xc)+E(xc)   XCENC  =        29.41801849
  PAW double counting   =       651.00247375     -652.67866919
  entropy T*S    EENTRO =         0.01159581
  eigenvalues    EBANDS =       -99.81990333
  atomic energy  EATOM  =       301.91090041
  Solvation  Ediel_sol  =         0.00000000
  ---------------------------------------------------
  free energy    TOTEN  =       -19.20881030 eV

  energy without entropy =      -19.22040612  energy(sigma->0) =      -19.21267558


--------------------------------------------------------------------------------------------------------




--------------------------------------- Iteration      1(   8)  ---------------------------------------


    POTLOK:  cpu time    0.1250: real time    0.1219
    SETDIJ:  cpu time    0.0000: real time    0.0038
     EDDAV:  cpu time    0.0469: real time    0.0430
       DOS:  cpu time    0.0000: real time    0.0002
    CHARGE:  cpu time    0.0000: real time    0.0150
    MIXING:  cpu time    0.0156: real time    0.0064
    --------------------------------------------
      LOOP:  cpu time    0.1875: real time    0.1903

 eigenvalue-minimisations  :    16
 total energy-change (2. order) :-0.1471862E-01  (-0.1669089E-02)
 number of electron       8.0000063 magnetization 
 augmentation part        0.3388365 magnetization 

 Broyden mixing:
  rms(total) = 0.31417E-01    rms(broyden)= 0.31412E-01
  rms(prec ) = 0.34949E-01
  weight for this iteration     100.00

 eigenvalues of (default mixing * dielectric matrix)
  average eigenvalue GAMMA=   1.8238
  4.2221  2.5579  1.7885  1.1507  1.1507  1.0010  0.8954

 Free energy of the ion-electron system (eV)
  ---------------------------------------------------
  alpha Z        PSCENC =         0.68708806
  Ewald energy   TEWEN  =        68.73219124
  -Hartree energ DENC   =      -318.89284250
  -exchange      EXHF   =         0.00000000
  -V(xc)+E(xc)   XCENC  =        29.41893903
  PAW double counting   =       639.98695679     -641.66724435
  entropy T*S    EENTRO =         0.01159581
  eigenvalues    EBANDS =       -99.41111342
  atomic energy  EATOM  =       301.91090041
  Solvation  Ediel_sol  =         0.00000000
  ---------------------------------------------------
  free energy    TOTEN  =       -19.22352893 eV

  energy without entropy =      -19.23512474  energy(sigma->0) =      -19.22739420


--------------------------------------------------------------------------------------------------------




--------------------------------------- Iteration      1(   9)  ---------------------------------------


    POTLOK:  cpu time    0.1250: real time    0.1276
    SETDIJ:  cpu time    0.0000: real time    0.0033
     EDDAV:  cpu time    0.0469: real time    0.0480
       DOS:  cpu time    0.0000: real time    0.0002
    CHARGE:  cpu time    0.0156: real time    0.0154
    MIXING:  cpu time    0.0156: real time    0.0065
    --------------------------------------------
      LOOP:  cpu time    0.2031: real time    0.2009

 eigenvalue-minimisations  :    24
 total energy-change (2. order) :-0.2548983E-02  (-0.1248280E-03)
 number of electron       8.0000063 magnetization 
 augmentation part        0.3388840 magnetization 

 Broyden mixing:
  rms(total) = 0.20270E-01    rms(broyden)= 0.20269E-01
  rms(prec ) = 0.23065E-01
  weight for this iteration     100.00

 eigenvalues of (default mixing * dielectric matrix)
  average eigenvalue GAMMA=   1.9610
  5.2326  2.5214  2.1722  1.5241  1.1298  1.1298  0.9478  1.0301

 Free energy of the ion-electron system (eV)
  ---------------------------------------------------
  alpha Z        PSCENC =         0.68708806
  Ewald energy   TEWEN  =        68.73219124
  -Hartree energ DENC   =      -318.88496605
  -exchange      EXHF   =         0.00000000
  -V(xc)+E(xc)   XCENC  =        29.41580300
  PAW double counting   =       645.14956649     -646.82966396
  entropy T*S    EENTRO =         0.01159581
  eigenvalues    EBANDS =       -99.41859291
  atomic energy  EATOM  =       301.91090041
  Solvation  Ediel_sol  =         0.00000000
  ---------------------------------------------------
  free energy    TOTEN  =       -19.22607791 eV

  energy without entropy =      -19.23767372  energy(sigma->0) =      -19.22994318


--------------------------------------------------------------------------------------------------------




--------------------------------------- Iteration      1(  10)  ---------------------------------------


    POTLOK:  cpu time    0.1250: real time    0.1277
    SETDIJ:  cpu time    0.0000: real time    0.0032
     EDDAV:  cpu time    0.0469: real time    0.0406
       DOS:  cpu time    0.0000: real time    0.0003
    CHARGE:  cpu time    0.0156: real time    0.0131
    MIXING:  cpu time    0.0000: real time    0.0063
    --------------------------------------------
      LOOP:  cpu time    0.1875: real time    0.1912

 eigenvalue-minimisations  :    16
 total energy-change (2. order) :-0.1244509E-02  (-0.2741219E-03)
 number of electron       8.0000063 magnetization 
 augmentation part        0.3401011 magnetization 

 Broyden mixing:
  rms(total) = 0.66336E-02    rms(broyden)= 0.66306E-02
  rms(prec ) = 0.77672E-02
  weight for this iteration     100.00

 eigenvalues of (default mixing * dielectric matrix)
  average eigenvalue GAMMA=   2.0380
  5.9615  2.5041  2.4418  1.9168  1.1484  1.1484  1.2045  1.0410  0.9756

 Free energy of the ion-electron system (eV)
  ---------------------------------------------------
  alpha Z        PSCENC =         0.68708806
  Ewald energy   TEWEN  =        68.73219124
  -Hartree energ DENC   =      -318.64460992
  -exchange      EXHF   =         0.00000000
  -V(xc)+E(xc)   XCENC  =        29.40358484
  PAW double counting   =       650.74434887     -652.42184963
  entropy T*S    EENTRO =         0.01159581
  eigenvalues    EBANDS =       -99.65057210
  atomic energy  EATOM  =       301.91090041
  Solvation  Ediel_sol  =         0.00000000
  ---------------------------------------------------
  free energy    TOTEN  =       -19.22732242 eV

  energy without entropy =      -19.23891823  energy(sigma->0) =      -19.23118769


--------------------------------------------------------------------------------------------------------




--------------------------------------- Iteration      1(  11)  ---------------------------------------


    POTLOK:  cpu time    0.1094: real time    0.1224
    SETDIJ:  cpu time    0.0156: real time    0.0038
     EDDAV:  cpu time    0.0469: real time    0.0422
       DOS:  cpu time    0.0000: real time    0.0001
    CHARGE:  cpu time    0.0156: real time    0.0122
    MIXING:  cpu time    0.0000: real time    0.0063
    --------------------------------------------
      LOOP:  cpu time    0.1875: real time    0.1870

 eigenvalue-minimisations  :    16
 total energy-change (2. order) :-0.3673484E-03  (-0.2149667E-04)
 number of electron       8.0000063 magnetization 
 augmentation part        0.3398070 magnetization 

 Broyden mixing:
  rms(total) = 0.30292E-02    rms(broyden)= 0.30291E-02
  rms(prec ) = 0.32606E-02
  weight for this iteration     100.00

 eigenvalues of (default mixing * dielectric matrix)
  average eigenvalue GAMMA=   2.0507
  6.3460  3.0397  2.5769  1.6257  1.6257  1.1447  1.1447  0.9108  1.0463  1.0463

 Free energy of the ion-electron system (eV)
  ---------------------------------------------------
  alpha Z        PSCENC =         0.68708806
  Ewald energy   TEWEN  =        68.73219124
  -Hartree energ DENC   =      -318.67305268
  -exchange      EXHF   =         0.00000000
  -V(xc)+E(xc)   XCENC  =        29.40503152
  PAW double counting   =       649.78446978     -651.46280353
  entropy T*S    EENTRO =         0.01159581
  eigenvalues    EBANDS =       -99.62311038
  atomic energy  EATOM  =       301.91090041
  Solvation  Ediel_sol  =         0.00000000
  ---------------------------------------------------
  free energy    TOTEN  =       -19.22768977 eV

  energy without entropy =      -19.23928558  energy(sigma->0) =      -19.23155504


--------------------------------------------------------------------------------------------------------




--------------------------------------- Iteration      1(  12)  ---------------------------------------


    POTLOK:  cpu time    0.1250: real time    0.1212
    SETDIJ:  cpu time    0.0000: real time    0.0035
     EDDAV:  cpu time    0.0469: real time    0.0428
       DOS:  cpu time    0.0000: real time    0.0005
    CHARGE:  cpu time    0.0000: real time    0.0159
    MIXING:  cpu time    0.0156: real time    0.0079
    --------------------------------------------
      LOOP:  cpu time    0.1875: real time    0.1919

 eigenvalue-minimisations  :    24
 total energy-change (2. order) :-0.1262059E-03  (-0.5912332E-05)
 number of electron       8.0000063 magnetization 
 augmentation part        0.3397358 magnetization 

 Broyden mixing:
  rms(total) = 0.10473E-02    rms(broyden)= 0.10470E-02
  rms(prec ) = 0.11472E-02
  weight for this iteration     100.00

 eigenvalues of (default mixing * dielectric matrix)
  average eigenvalue GAMMA=   2.0589
  6.4975  3.3269  2.4286  2.2314  1.4648  1.4648  1.1331  1.1331  0.9352  1.0162
  1.0162

 Free energy of the ion-electron system (eV)
  ---------------------------------------------------
  alpha Z        PSCENC =         0.68708806
  Ewald energy   TEWEN  =        68.73219124
  -Hartree energ DENC   =      -318.67911454
  -exchange      EXHF   =         0.00000000
  -V(xc)+E(xc)   XCENC  =        29.40520375
  PAW double counting   =       649.12800204     -650.80647173
  entropy T*S    EENTRO =         0.01159581
  eigenvalues    EBANDS =       -99.61721102
  atomic energy  EATOM  =       301.91090041
  Solvation  Ediel_sol  =         0.00000000
  ---------------------------------------------------
  free energy    TOTEN  =       -19.22781597 eV

  energy without entropy =      -19.23941178  energy(sigma->0) =      -19.23168124


--------------------------------------------------------------------------------------------------------




--------------------------------------- Iteration      1(  13)  ---------------------------------------


    POTLOK:  cpu time    0.1406: real time    0.1395
    SETDIJ:  cpu time    0.0156: real time    0.0042
     EDDAV:  cpu time    0.0312: real time    0.0446
       DOS:  cpu time    0.0000: real time    0.0001
    CHARGE:  cpu time    0.0156: real time    0.0130
    MIXING:  cpu time    0.0156: real time    0.0074
    --------------------------------------------
      LOOP:  cpu time    0.2188: real time    0.2089

 eigenvalue-minimisations  :    24
 total energy-change (2. order) :-0.3816311E-04  (-0.1303451E-05)
 number of electron       8.0000063 magnetization 
 augmentation part        0.3397733 magnetization 

 Broyden mixing:
  rms(total) = 0.44385E-03    rms(broyden)= 0.44382E-03
  rms(prec ) = 0.60359E-03
  weight for this iteration     100.00

 eigenvalues of (default mixing * dielectric matrix)
  average eigenvalue GAMMA=   2.0867
  6.5274  3.8746  2.5845  2.5845  1.8175  1.1471  1.1471  1.3303  1.0742  1.0742
  0.9397  0.9397

 Free energy of the ion-electron system (eV)
  ---------------------------------------------------
  alpha Z        PSCENC =         0.68708806
  Ewald energy   TEWEN  =        68.73219124
  -Hartree energ DENC   =      -318.65986900
  -exchange      EXHF   =         0.00000000
  -V(xc)+E(xc)   XCENC  =        29.40413648
  PAW double counting   =       648.95542217     -650.63365764
  entropy T*S    EENTRO =         0.01159581
  eigenvalues    EBANDS =       -99.63566167
  atomic energy  EATOM  =       301.91090041
  Solvation  Ediel_sol  =         0.00000000
  ---------------------------------------------------
  free energy    TOTEN  =       -19.22785414 eV

  energy without entropy =      -19.23944995  energy(sigma->0) =      -19.23171941


--------------------------------------------------------------------------------------------------------




--------------------------------------- Iteration      1(  14)  ---------------------------------------


    POTLOK:  cpu time    0.1250: real time    0.1301
    SETDIJ:  cpu time    0.0000: real time    0.0039
     EDDAV:  cpu time    0.0312: real time    0.0435
       DOS:  cpu time    0.0000: real time    0.0001
    CHARGE:  cpu time    0.0156: real time    0.0154
    MIXING:  cpu time    0.0000: real time    0.0077
    --------------------------------------------
      LOOP:  cpu time    0.1875: real time    0.2008

 eigenvalue-minimisations  :    24
 total energy-change (2. order) :-0.9917905E-05  (-0.6548490E-06)
 number of electron       8.0000063 magnetization 
 augmentation part        0.3397229 magnetization 

 Broyden mixing:
  rms(total) = 0.60061E-03    rms(broyden)= 0.60054E-03
  rms(prec ) = 0.64637E-03
  weight for this iteration     100.00

 eigenvalues of (default mixing * dielectric matrix)
  average eigenvalue GAMMA=   2.0567
  6.5644  3.9697  2.5060  2.5060  2.1658  1.6746  1.1488  1.1488  1.0885  1.0329
  1.0329  0.9238  0.9750

 Free energy of the ion-electron system (eV)
  ---------------------------------------------------
  alpha Z        PSCENC =         0.68708806
  Ewald energy   TEWEN  =        68.73219124
  -Hartree energ DENC   =      -318.66859962
  -exchange      EXHF   =         0.00000000
  -V(xc)+E(xc)   XCENC  =        29.40462968
  PAW double counting   =       648.75084803     -650.42920397
  entropy T*S    EENTRO =         0.01159581
  eigenvalues    EBANDS =       -99.62731369
  atomic energy  EATOM  =       301.91090041
  Solvation  Ediel_sol  =         0.00000000
  ---------------------------------------------------
  free energy    TOTEN  =       -19.22786405 eV

  energy without entropy =      -19.23945986  energy(sigma->0) =      -19.23172932


--------------------------------------------------------------------------------------------------------




--------------------------------------- Iteration      1(  15)  ---------------------------------------


    POTLOK:  cpu time    0.1406: real time    0.1377
    SETDIJ:  cpu time    0.0000: real time    0.0030
     EDDAV:  cpu time    0.0469: real time    0.0383
       DOS:  cpu time    0.0000: real time    0.0003
    CHARGE:  cpu time    0.0156: real time    0.0117
    MIXING:  cpu time    0.0000: real time    0.0058
    --------------------------------------------
      LOOP:  cpu time    0.1875: real time    0.1968

 eigenvalue-minimisations  :    16
 total energy-change (2. order) :-0.2489246E-05  (-0.8173410E-07)
 number of electron       8.0000063 magnetization 
 augmentation part        0.3397422 magnetization 

 Broyden mixing:
  rms(total) = 0.14727E-03    rms(broyden)= 0.14726E-03
  rms(prec ) = 0.16108E-03
  weight for this iteration     100.00

 eigenvalues of (default mixing * dielectric matrix)
  average eigenvalue GAMMA=   2.0723
  6.5975  4.1025  3.1617  2.5063  2.0622  1.7764  1.5179  1.1495  1.1495  1.0193
  1.0193  1.0392  0.9553  0.9553

 Free energy of the ion-electron system (eV)
  ---------------------------------------------------
  alpha Z        PSCENC =         0.68708806
  Ewald energy   TEWEN  =        68.73219124
  -Hartree energ DENC   =      -318.66552761
  -exchange      EXHF   =         0.00000000
  -V(xc)+E(xc)   XCENC  =        29.40452768
  PAW double counting   =       648.99368150     -650.67200163
  entropy T*S    EENTRO =         0.01159581
  eigenvalues    EBANDS =       -99.63032199
  atomic energy  EATOM  =       301.91090041
  Solvation  Ediel_sol  =         0.00000000
  ---------------------------------------------------
  free energy    TOTEN  =       -19.22786654 eV

  energy without entropy =      -19.23946235  energy(sigma->0) =      -19.23173181


--------------------------------------------------------------------------------------------------------




--------------------------------------- Iteration      1(  16)  ---------------------------------------


    POTLOK:  cpu time    0.1094: real time    0.1026
    SETDIJ:  cpu time    0.0000: real time    0.0022
     EDDAV:  cpu time    0.0312: real time    0.0352
       DOS:  cpu time    0.0000: real time    0.0002
    CHARGE:  cpu time    0.0156: real time    0.0092
    MIXING:  cpu time    0.0000: real time    0.0047
    --------------------------------------------
      LOOP:  cpu time    0.1562: real time    0.1542

 eigenvalue-minimisations  :    16
 total energy-change (2. order) :-0.1320321E-05  (-0.9657544E-08)
 number of electron       8.0000063 magnetization 
 augmentation part        0.3397438 magnetization 

 Broyden mixing:
  rms(total) = 0.68791E-04    rms(broyden)= 0.68786E-04
  rms(prec ) = 0.78704E-04
  weight for this iteration     100.00

 eigenvalues of (default mixing * dielectric matrix)
  average eigenvalue GAMMA=   2.0941
  6.5812  4.4804  3.0140  2.6541  2.6541  1.9817  1.6380  1.1491  1.1491  1.1017
  1.1017  1.0021  1.0021  0.9513  0.9513

 Free energy of the ion-electron system (eV)
  ---------------------------------------------------
  alpha Z        PSCENC =         0.68708806
  Ewald energy   TEWEN  =        68.73219124
  -Hartree energ DENC   =      -318.66389462
  -exchange      EXHF   =         0.00000000
  -V(xc)+E(xc)   XCENC  =        29.40445618
  PAW double counting   =       648.96147174     -650.63979084
  entropy T*S    EENTRO =         0.01159581
  eigenvalues    EBANDS =       -99.63188583
  atomic energy  EATOM  =       301.91090041
  Solvation  Ediel_sol  =         0.00000000
  ---------------------------------------------------
  free energy    TOTEN  =       -19.22786786 eV

  energy without entropy =      -19.23946367  energy(sigma->0) =      -19.23173313


--------------------------------------------------------------------------------------------------------




--------------------------------------- Iteration      1(  17)  ---------------------------------------


    POTLOK:  cpu time    0.1250: real time    0.1183
    SETDIJ:  cpu time    0.0000: real time    0.0026
     EDDAV:  cpu time    0.0312: real time    0.0289
       DOS:  cpu time    0.0000: real time    0.0002
    --------------------------------------------
      LOOP:  cpu time    0.1562: real time    0.1499

 eigenvalue-minimisations  :    16
 total energy-change (2. order) :-0.8074004E-06  (-0.4312234E-08)
 number of electron       8.0000063 magnetization 
 augmentation part        0.3397438 magnetization 

 Free energy of the ion-electron system (eV)
  ---------------------------------------------------
  alpha Z        PSCENC =         0.68708806
  Ewald energy   TEWEN  =        68.73219124
  -Hartree energ DENC   =      -318.66348777
  -exchange      EXHF   =         0.00000000
  -V(xc)+E(xc)   XCENC  =        29.40445079
  PAW double counting   =       648.94339101     -650.62172175
  entropy T*S    EENTRO =         0.01159581
  eigenvalues    EBANDS =       -99.63227647
  atomic energy  EATOM  =       301.91090041
  Solvation  Ediel_sol  =         0.00000000
  ---------------------------------------------------
  free energy    TOTEN  =       -19.22786867 eV

  energy without entropy =      -19.23946448  energy(sigma->0) =      -19.23173394


--------------------------------------------------------------------------------------------------------




 average (electrostatic) potential at core
  the test charge radii are     0.5201  0.7089
  (the norm of the test charge is              1.0000)
       1 -43.5449       2 -43.5414       3 -43.5449       4 -72.3769



 E-fermi :  -5.2040     XC(G=0):  -1.6648     alpha+bet : -0.5051


 k-point     1 :       0.0000    0.0000    0.0000
  band No.  band energies     occupation 
      1     -21.0487      2.00000
      2     -11.6978      2.00000
      3     -11.6973      2.00000
      4      -5.3724      2.00000
      5      -1.0247     -0.00000
      6       1.4970      0.00000
      7       1.6726      0.00000
      8       1.8537      0.00000


--------------------------------------------------------------------------------------------------------


 soft charge-density along one line, spin component           1
         0         1         2         3         4         5         6         7         8         9
 total charge-density along one line

 pseudopotential strength for first ion, spin component:           1
 -2.365  -4.082   0.001  -0.000   0.002
 -4.082  -6.956   0.004  -0.002   0.007
  0.001   0.004  -0.325  -0.001   0.004
 -0.000  -0.002  -0.001  -0.327  -0.002
  0.002   0.007   0.004  -0.002  -0.320
 total augmentation occupancy for first ion, spin component:           1
  4.068  -0.794  -0.343   0.135  -0.594
 -0.794   0.181   0.066  -0.029   0.114
 -0.343   0.066   0.042  -0.008   0.043
  0.135  -0.029  -0.008   0.042  -0.014
 -0.594   0.114   0.043  -0.014   0.092


------------------------ aborting loop because EDIFF is reached ----------------------------------------


    CHARGE:  cpu time    0.0000: real time    0.0111
    FORLOC:  cpu time    0.0156: real time    0.0097
    FORNL :  cpu time    0.0000: real time    0.0066
    STRESS:  cpu time    0.0469: real time    0.0567
    FORCOR:  cpu time    0.1250: real time    0.1150
    FORHAR:  cpu time    0.0312: real time    0.0383
    MIXING:  cpu time    0.0000: real time    0.0060
    OFIELD:  cpu time    0.0000: real time    0.0000

  FORCE on cell =-STRESS in cart. coord.  units (eV):
  Direction    XX          YY          ZZ          XY          YZ          ZX
  --------------------------------------------------------------------------------------
  Alpha Z     0.68709     0.68709     0.68709
  Ewald      88.91554    60.35352   -80.53689    -0.00000    -0.02477     0.00000
  Hartree   139.57239   112.98229    66.10908     0.00000    -0.01508    -0.00000
  E(xc)     -31.30300   -31.30394   -31.69096    -0.00000     0.00002    -0.00000
  Local    -292.66238  -237.52488   -82.60212    -0.00000     0.03722     0.00000
  n-local   -24.16171   -24.15018   -25.89773    -0.00000    -0.00024    -0.00000
  augment     1.20063     1.20156     2.07740    -0.00000     0.00036    -0.00000
  Kinetic   120.20110   120.15654   151.36423     0.00000     0.01072     0.00000
  Fock        0.00000     0.00000     0.00000     0.00000     0.00000     0.00000
  -------------------------------------------------------------------------------------
  Total       2.44966     2.40199    -0.48992     0.00000     0.00823     0.00000
  in kB      11.68091    11.45362    -2.33610     0.00000     0.03925     0.00000
  external pressure =        6.93 kB  Pullay stress =        0.00 kB


 VOLUME and BASIS-vectors are now :
 -----------------------------------------------------------------------------
  energy-cutoff  :      400.00
  volume of cell :      336.00
      direct lattice vectors                 reciprocal lattice vectors
     6.000000000  0.000000000  0.000000000     0.166666667  0.000000000  0.000000000
     0.000000000  7.000000000  0.000000000     0.000000000  0.142857143  0.000000000
     0.000000000  0.000000000  8.000000000     0.000000000  0.000000000  0.125000000

  length of vectors
     6.000000000  7.000000000  8.000000000     0.166666667  0.142857143  0.125000000


 FORCES acting on ions
    electron-ion (+dipol)            ewald-force                    non-local-force                 convergence-correction
 -----------------------------------------------------------------------------------------------
   -.622E+02 -.365E+02 0.135E+02   0.715E+02 0.419E+02 -.157E+02   -.729E+01 -.420E+01 0.155E+01   0.246E-04 0.259E-04 -.436E-04
   0.162E-13 0.730E+02 0.135E+02   -.448E-15 -.836E+02 -.157E+02   0.000E+00 0.841E+01 0.154E+01   0.191E-14 -.469E-04 -.493E-04
   0.622E+02 -.365E+02 0.135E+02   -.715E+02 0.419E+02 -.157E+02   0.729E+01 -.420E+01 0.155E+01   -.246E-04 0.259E-04 -.436E-04
   0.954E-13 0.762E-01 -.284E+02   0.951E-16 -.877E-01 0.471E+02   0.000E+00 0.223E-01 -.167E+02   0.140E-13 0.853E-04 -.391E-03
 -----------------------------------------------------------------------------------------------
   0.301E-12 -.274E-01 0.120E+02   0.951E-16 -.555E-16 0.000E+00   0.000E+00 0.276E-01 -.120E+02   0.159E-13 0.902E-04 -.527E-03


 POSITION                                       TOTAL-FORCE (eV/Angst)
 -----------------------------------------------------------------------------------
      3.81857      3.97220      3.80334         1.968229      1.135445     -0.662063
      3.00000      2.55489      3.80347         0.000000     -2.281681     -0.662705
      2.18143      3.97220      3.80334        -1.968229      1.135445     -0.662063
      3.00000      3.50000      4.00000         0.000000      0.010791      1.986831
 -----------------------------------------------------------------------------------
    total drift:                                0.000000      0.000293     -0.000199


--------------------------------------------------------------------------------------------------------



  FREE ENERGIE OF THE ION-ELECTRON SYSTEM (eV)
  ---------------------------------------------------
  free  energy   TOTEN  =       -19.22786867 eV

  energy  without entropy=      -19.23946448  energy(sigma->0) =      -19.23173394



--------------------------------------------------------------------------------------------------------


    POTLOK:  cpu time    0.1250: real time    0.1243


--------------------------------------------------------------------------------------------------------


 NEB: the previous image is higher in energy: T
 NEB: the next image is higher in energy    : F
 NEB: only prev energy greater

 NEB: Tangent
 ----------------------------------------------
     -0.00000     -0.00000     -0.57747
     -0.00000     -0.00000     -0.57710
     -0.00000     -0.00000     -0.57747
     -0.00000     -0.00000     -0.00000

 NEB: forces: par spring, perp REAL, dneb     0.000000    4.413616    0.000000
 NEB: distance to prev, next image, angle between     0.340549    0.340549  180.000000
 NEB: projections on to tangent (spring, REAL)     0.000000    1.147097

 stress matrix after NEB project (eV)
      2.44966      0.00000      0.00000
      0.00000      2.40199      0.00823
      0.00000      0.00823     -0.48992
  FORCES: max atom, RMS     2.281681    2.206808
  FORCE total and by dimension    4.413616    2.281681
  Stress total and by dimension    3.465622    2.449658
 
 OPT: Flag T
 OPT: LBFGS Step
 OPT: LBFGS start
 OPT: LBFGS, initial finite difference
 OPT: LBFGS: positions in Cartesian coordinates
      3.81971061      3.97285816      3.80334221
      3.00000000      2.55357042      3.80346759
      2.18028939      3.97285816      3.80334221
      3.00000000      3.50000626      4.00115341
 OPT: LBFGS END subroutine


--------------------------------------------------------------------------------------------------------


    WAVPRE:  cpu time    0.4531: real time    0.4970
    FEWALD:  cpu time    0.0000: real time    0.0003
    ORTHCH:  cpu time    0.0000: real time    0.0031
     LOOP+:  cpu time    4.0469: real time    4.1166


--------------------------------------- Iteration      2(   1)  ---------------------------------------


    POTLOK:  cpu time    0.1406: real time    0.1468
    SETDIJ:  cpu time    0.0000: real time    0.0036
     EDDAV:  cpu time    0.0625: real time    0.0550
       DOS:  cpu time    0.0000: real time    0.0004
    CHARGE:  cpu time    0.0156: real time    0.0168
    MIXING:  cpu time    0.0000: real time    0.0045
    --------------------------------------------
      LOOP:  cpu time    0.2188: real time    0.2272

 eigenvalue-minimisations  :    16
 total energy-change (2. order) :-0.1115530E-01  (-0.1006749E-02)
 number of electron       8.0000062 magnetization 
 augmentation part        0.3386823 magnetization 

 Broyden mixing:
  rms(total) = 0.43458E-02    rms(broyden)= 0.43325E-02
  rms(prec ) = 0.61134E-02
  weight for this iteration     100.00

 Free energy of the ion-electron system (eV)
  ---------------------------------------------------
  alpha Z        PSCENC =         0.68708806
  Ewald energy   TEWEN  =        68.34906065
  -Hartree energ DENC   =      -318.47854268
  -exchange      EXHF   =         0.00000000
  -V(xc)+E(xc)   XCENC  =        29.39468471
  PAW double counting   =       648.93177399     -650.61010484
  entropy T*S    EENTRO =         0.01159581
  eigenvalues    EBANDS =       -99.43547927
  atomic energy  EATOM  =       301.91090041
  Solvation  Ediel_sol  =         0.00000000
  ---------------------------------------------------
  free energy    TOTEN  =       -19.23902316 eV

  energy without entropy =      -19.25061897  energy(sigma->0) =      -19.24288843


--------------------------------------------------------------------------------------------------------




--------------------------------------- Iteration      2(   2)  ---------------------------------------


    POTLOK:  cpu time    0.1406: real time    0.1305
    SETDIJ:  cpu time    0.0000: real time    0.0037
     EDDAV:  cpu time    0.0469: real time    0.0460
       DOS:  cpu time    0.0000: real time    0.0001
    CHARGE:  cpu time    0.0156: real time    0.0139
    MIXING:  cpu time    0.0000: real time    0.0059
    --------------------------------------------
      LOOP:  cpu time    0.2031: real time    0.2002

 eigenvalue-minimisations  :    16
 total energy-change (2. order) : 0.4259346E-04  (-0.2386428E-04)
 number of electron       8.0000062 magnetization 
 augmentation part        0.3388997 magnetization 

 Broyden mixing:
  rms(total) = 0.20095E-02    rms(broyden)= 0.20082E-02
  rms(prec ) = 0.24637E-02
  weight for this iteration     100.00

 eigenvalues of (default mixing * dielectric matrix)
  average eigenvalue GAMMA=   1.2289
  1.2289

 Free energy of the ion-electron system (eV)
  ---------------------------------------------------
  alpha Z        PSCENC =         0.68708806
  Ewald energy   TEWEN  =        68.34906065
  -Hartree energ DENC   =      -318.38751592
  -exchange      EXHF   =         0.00000000
  -V(xc)+E(xc)   XCENC  =        29.38950507
  PAW double counting   =       648.22586449     -649.90277811
  entropy T*S    EENTRO =         0.01159581
  eigenvalues    EBANDS =       -99.52270103
  atomic energy  EATOM  =       301.91090041
  Solvation  Ediel_sol  =         0.00000000
  ---------------------------------------------------
  free energy    TOTEN  =       -19.23898057 eV

  energy without entropy =      -19.25057638  energy(sigma->0) =      -19.24284584


--------------------------------------------------------------------------------------------------------




--------------------------------------- Iteration      2(   3)  ---------------------------------------


    POTLOK:  cpu time    0.1250: real time    0.1517
    SETDIJ:  cpu time    0.0000: real time    0.0049
     EDDAV:  cpu time    0.0625: real time    0.0607
       DOS:  cpu time    0.0000: real time    0.0002
    CHARGE:  cpu time    0.0156: real time    0.0183
    MIXING:  cpu time    0.0156: real time    0.0075
    --------------------------------------------
      LOOP:  cpu time    0.2188: real time    0.2432

 eigenvalue-minimisations  :    16
 total energy-change (2. order) : 0.3450482E-05  (-0.2825170E-05)
 number of electron       8.0000062 magnetization 
 augmentation part        0.3390044 magnetization 

 Broyden mixing:
  rms(total) = 0.12180E-02    rms(broyden)= 0.12176E-02
  rms(prec ) = 0.13354E-02
  weight for this iteration     100.00

 eigenvalues of (default mixing * dielectric matrix)
  average eigenvalue GAMMA=   1.4214
  1.4214  1.4214

 Free energy of the ion-electron system (eV)
  ---------------------------------------------------
  alpha Z        PSCENC =         0.68708806
  Ewald energy   TEWEN  =        68.34906065
  -Hartree energ DENC   =      -318.36064793
  -exchange      EXHF   =         0.00000000
  -V(xc)+E(xc)   XCENC  =        29.38795320
  PAW double counting   =       647.61014764     -649.28636613
  entropy T*S    EENTRO =         0.01159581
  eigenvalues    EBANDS =       -99.54870883
  atomic energy  EATOM  =       301.91090041
  Solvation  Ediel_sol  =         0.00000000
  ---------------------------------------------------
  free energy    TOTEN  =       -19.23897712 eV

  energy without entropy =      -19.25057293  energy(sigma->0) =      -19.24284239


--------------------------------------------------------------------------------------------------------




--------------------------------------- Iteration      2(   4)  ---------------------------------------


    POTLOK:  cpu time    0.1406: real time    0.1842
    SETDIJ:  cpu time    0.0156: real time    0.0027
     EDDAV:  cpu time    0.0469: real time    0.0476
       DOS:  cpu time    0.0000: real time    0.0002
    --------------------------------------------
      LOOP:  cpu time    0.2031: real time    0.2346

 eigenvalue-minimisations  :    16
 total energy-change (2. order) :-0.3062104E-06  (-0.4618758E-06)
 number of electron       8.0000062 magnetization 
 augmentation part        0.3390044 magnetization 

 Free energy of the ion-electron system (eV)
  ---------------------------------------------------
  alpha Z        PSCENC =         0.68708806
  Ewald energy   TEWEN  =        68.34906065
  -Hartree energ DENC   =      -318.36980430
  -exchange      EXHF   =         0.00000000
  -V(xc)+E(xc)   XCENC  =        29.38840390
  PAW double counting   =       647.19595863     -648.87204330
  entropy T*S    EENTRO =         0.01159581
  eigenvalues    EBANDS =       -99.54013728
  atomic energy  EATOM  =       301.91090041
  Solvation  Ediel_sol  =         0.00000000
  ---------------------------------------------------
  free energy    TOTEN  =       -19.23897742 eV

  energy without entropy =      -19.25057323  energy(sigma->0) =      -19.24284269


--------------------------------------------------------------------------------------------------------




 average (electrostatic) potential at core
  the test charge radii are     0.5201  0.7089
  (the norm of the test charge is              1.0000)
       1 -43.5235       2 -43.5199       3 -43.5235       4 -72.3763



 E-fermi :  -5.2029     XC(G=0):  -1.6619     alpha+bet : -0.5051


 k-point     1 :       0.0000    0.0000    0.0000
  band No.  band energies     occupation 
      1     -21.0326      2.00000
      2     -11.6834      2.00000
      3     -11.6829      2.00000
      4      -5.3712      2.00000
      5      -1.0263     -0.00000
      6       1.5015      0.00000
      7       1.6728      0.00000
      8       1.8512      0.00000


--------------------------------------------------------------------------------------------------------


 soft charge-density along one line, spin component           1
         0         1         2         3         4         5         6         7         8         9
 total charge-density along one line

 pseudopotential strength for first ion, spin component:           1
 -2.365  -4.081   0.001  -0.000   0.002
 -4.081  -6.956   0.004  -0.002   0.007
  0.001   0.004  -0.325  -0.001   0.004
 -0.000  -0.002  -0.001  -0.328  -0.002
  0.002   0.007   0.004  -0.002  -0.320
 total augmentation occupancy for first ion, spin component:           1
  4.063  -0.794  -0.341   0.135  -0.591
 -0.794   0.181   0.066  -0.029   0.114
 -0.341   0.066   0.041  -0.008   0.043
  0.135  -0.029  -0.008   0.042  -0.014
 -0.591   0.114   0.043  -0.014   0.091


------------------------ aborting loop because EDIFF is reached ----------------------------------------


    CHARGE:  cpu time    0.0156: real time    0.0148
    FORLOC:  cpu time    0.0000: real time    0.0113
    FORNL :  cpu time    0.0156: real time    0.0088
    STRESS:  cpu time    0.0625: real time    0.0815
    FORCOR:  cpu time    0.1719: real time    0.1835
    FORHAR:  cpu time    0.0312: real time    0.0382
    MIXING:  cpu time    0.0156: real time    0.0044
    OFIELD:  cpu time    0.0000: real time    0.0000

  FORCE on cell =-STRESS in cart. coord.  units (eV):
  Direction    XX          YY          ZZ          XY          YZ          ZX
  --------------------------------------------------------------------------------------
  Alpha Z     0.68709     0.68709     0.68709
  Ewald      88.69075    60.12951   -80.47123    -0.00000    -0.02517     0.00000
  Hartree   139.46349   112.87726    66.01202     0.00000    -0.01516    -0.00000
  E(xc)     -31.28592   -31.28687   -31.67390    -0.00000     0.00002    -0.00000
  Local    -292.41630  -237.28415   -82.52147     0.00000     0.03750     0.00000
  n-local   -24.10943   -24.09766   -25.85818    -0.00000    -0.00025    -0.00000
  augment     1.20048     1.20146     2.07392     0.00000     0.00037     0.00000
  Kinetic   120.09764   120.05234   151.25052     0.00000     0.01080     0.00000
  Fock        0.00000     0.00000     0.00000     0.00000     0.00000     0.00000
  -------------------------------------------------------------------------------------
  Total       2.32780     2.27898    -0.50124     0.00000     0.00811     0.00000
  in kB      11.09986    10.86707    -2.39009     0.00000     0.03866     0.00000
  external pressure =        6.53 kB  Pullay stress =        0.00 kB


 VOLUME and BASIS-vectors are now :
 -----------------------------------------------------------------------------
  energy-cutoff  :      400.00
  volume of cell :      336.00
      direct lattice vectors                 reciprocal lattice vectors
     6.000000000  0.000000000  0.000000000     0.166666667  0.000000000  0.000000000
     0.000000000  7.000000000  0.000000000     0.000000000  0.142857143  0.000000000
     0.000000000  0.000000000  8.000000000     0.000000000  0.000000000  0.125000000

  length of vectors
     6.000000000  7.000000000  8.000000000     0.166666667  0.142857143  0.125000000


 FORCES acting on ions
    electron-ion (+dipol)            ewald-force                    non-local-force                 convergence-correction
 -----------------------------------------------------------------------------------------------
   -.621E+02 -.365E+02 0.135E+02   0.712E+02 0.417E+02 -.157E+02   -.725E+01 -.418E+01 0.154E+01   -.137E-02 -.785E-03 -.286E-03
   0.161E-13 0.728E+02 0.135E+02   -.410E-15 -.834E+02 -.157E+02   0.000E+00 0.837E+01 0.154E+01   0.314E-14 0.161E-02 -.288E-03
   0.621E+02 -.365E+02 0.135E+02   -.712E+02 0.417E+02 -.157E+02   0.725E+01 -.418E+01 0.154E+01   0.137E-02 -.785E-03 -.286E-03
   0.971E-13 0.775E-01 -.284E+02   -.567E-13 -.899E-01 0.471E+02   0.000E+00 0.222E-01 -.168E+02   0.236E-13 0.604E-04 -.698E-02
 -----------------------------------------------------------------------------------------------
   0.971E-13 -.272E-01 0.121E+02   0.951E-16 -.555E-16 0.000E+00   0.000E+00 0.271E-01 -.121E+02   0.272E-13 0.969E-04 -.784E-02


 POSITION                                       TOTAL-FORCE (eV/Angst)
 -----------------------------------------------------------------------------------
      3.81971      3.97286      3.80334         1.892476      1.091861     -0.648786
      3.00000      2.55357      3.80347         0.000000     -2.193637     -0.649299
      2.18029      3.97286      3.80334        -1.892476      1.091861     -0.648786
      3.00000      3.50001      4.00115         0.000000      0.009915      1.946872
 -----------------------------------------------------------------------------------
    total drift:                                0.000000      0.000073     -0.001616


--------------------------------------------------------------------------------------------------------



  FREE ENERGIE OF THE ION-ELECTRON SYSTEM (eV)
  ---------------------------------------------------
  free  energy   TOTEN  =       -19.23897742 eV

  energy  without entropy=      -19.25057323  energy(sigma->0) =      -19.24284269

 d Force = 0.1111201E-01[ 0.109E-01, 0.113E-01]  d Energy = 0.1110875E-01 0.326E-05
 d Force = 0.3831309E+00[ 0.383E+00, 0.384E+00]  d Ewald  = 0.3831306E+00 0.267E-06


--------------------------------------------------------------------------------------------------------


    POTLOK:  cpu time    0.1250: real time    0.1264


--------------------------------------------------------------------------------------------------------


 NEB: the previous image is higher in energy: T
 NEB: the next image is higher in energy    : F
 NEB: only prev energy greater

 NEB: Tangent
 ----------------------------------------------
     -0.00170     -0.00098     -0.57747
     -0.00000      0.00196     -0.57710
      0.00170     -0.00098     -0.57747
     -0.00000     -0.00000      0.00339

 NEB: forces: par spring, perp REAL, dneb     0.000029    4.261904    0.000000
 NEB: distance to prev, next image, angle between     0.340553    0.340559  179.567792
 NEB: projections on to tangent (spring, REAL)     0.000029    1.117730

 stress matrix after NEB project (eV)
      2.32780      0.00000      0.00000
      0.00000      2.27898      0.00811
      0.00000      0.00811     -0.50124
  FORCES: max atom, RMS     2.195831    2.130952
  FORCE total and by dimension    4.261904    2.195827
  Stress total and by dimension    3.296029    2.327803
 
 OPT: Flag T
 OPT: LBFGS Step
 OPT: LBFGS start
 OPT: LBFGS, invcurv =    7.9243111830662512E-003
 OPT: LBFGS, bound:            0
 OPT: LBFGS: positions in Cartesian coordinates
      3.83472225      3.98151908      3.80331565
      3.00000000      2.53617001      3.80343370
      2.16527775      3.98151908      3.80331565
      3.00000000      3.50008484      4.01655103
 OPT: LBFGS END subroutine


--------------------------------------------------------------------------------------------------------


    WAVPRE:  cpu time    0.0469: real time    0.0549
    FEWALD:  cpu time    0.0000: real time    0.0003
    ORTHCH:  cpu time    0.0156: real time    0.0031
     LOOP+:  cpu time    1.3594: real time    1.4414


--------------------------------------- Iteration      3(   1)  ---------------------------------------


    POTLOK:  cpu time    0.1406: real time    0.1477
    SETDIJ:  cpu time    0.0156: real time    0.0037
     EDDAV:  cpu time    0.0469: real time    0.0462
       DOS:  cpu time    0.0000: real time    0.0002
    CHARGE:  cpu time    0.0156: real time    0.0171
    MIXING:  cpu time    0.0000: real time    0.0073
    --------------------------------------------
      LOOP:  cpu time    0.2188: real time    0.2223

 eigenvalue-minimisations  :    16
 total energy-change (2. order) :-0.1191512E+00  (-0.1770169E+00)
 number of electron       8.0000046 magnetization 
 augmentation part        0.3249255 magnetization 

 Broyden mixing:
  rms(total) = 0.58187E-01    rms(broyden)= 0.58031E-01
  rms(prec ) = 0.82608E-01
  weight for this iteration     100.00

 Free energy of the ion-electron system (eV)
  ---------------------------------------------------
  alpha Z        PSCENC =         0.68708806
  Ewald energy   TEWEN  =        63.39934879
  -Hartree energ DENC   =      -315.92800808
  -exchange      EXHF   =         0.00000000
  -V(xc)+E(xc)   XCENC  =        29.25985176
  PAW double counting   =       646.82041385     -648.49620376
  entropy T*S    EENTRO =         0.01159581
  eigenvalues    EBANDS =       -97.02311517
  atomic energy  EATOM  =       301.91090041
  Solvation  Ediel_sol  =         0.00000000
  ---------------------------------------------------
  free energy    TOTEN  =       -19.35812834 eV

  energy without entropy =      -19.36972415  energy(sigma->0) =      -19.36199361


--------------------------------------------------------------------------------------------------------




--------------------------------------- Iteration      3(   2)  ---------------------------------------


    POTLOK:  cpu time    0.1406: real time    0.1356
    SETDIJ:  cpu time    0.0000: real time    0.0035
     EDDAV:  cpu time    0.0625: real time    0.0639
       DOS:  cpu time    0.0000: real time    0.0002
    CHARGE:  cpu time    0.0312: real time    0.0231
    MIXING:  cpu time    0.0000: real time    0.0099
    --------------------------------------------
      LOOP:  cpu time    0.2344: real time    0.2362

 eigenvalue-minimisations  :    24
 total energy-change (2. order) : 0.7845848E-02  (-0.4277699E-02)
 number of electron       8.0000046 magnetization 
 augmentation part        0.3284935 magnetization 

 Broyden mixing:
  rms(total) = 0.26983E-01    rms(broyden)= 0.26953E-01
  rms(prec ) = 0.31497E-01
  weight for this iteration     100.00

 eigenvalues of (default mixing * dielectric matrix)
  average eigenvalue GAMMA=   1.0626
  1.0626

 Free energy of the ion-electron system (eV)
  ---------------------------------------------------
  alpha Z        PSCENC =         0.68708806
  Ewald energy   TEWEN  =        63.39934879
  -Hartree energ DENC   =      -314.69985862
  -exchange      EXHF   =         0.00000000
  -V(xc)+E(xc)   XCENC  =        29.19032599
  PAW double counting   =       638.44454687     -640.10169122
  entropy T*S    EENTRO =         0.01159581
  eigenvalues    EBANDS =       -98.19253857
  atomic energy  EATOM  =       301.91090041
[...]
  PAW double counting   =       570.14762411     -571.69656148
  entropy T*S    EENTRO =         0.01159581
  eigenvalues    EBANDS =       -97.16011041
  atomic energy  EATOM  =       301.91090041
  Solvation  Ediel_sol  =         0.00000000
  ---------------------------------------------------
  free energy    TOTEN  =       -19.49160743 eV

  energy without entropy =      -19.50320324  energy(sigma->0) =      -19.49547270


--------------------------------------------------------------------------------------------------------




--------------------------------------- Iteration     23(   5)  ---------------------------------------


    POTLOK:  cpu time    0.1406: real time    0.1378
    SETDIJ:  cpu time    0.0000: real time    0.0045
     EDDAV:  cpu time    0.0469: real time    0.0421
       DOS:  cpu time    0.0000: real time    0.0001
    CHARGE:  cpu time    0.0156: real time    0.0136
    MIXING:  cpu time    0.0000: real time    0.0054
    --------------------------------------------
      LOOP:  cpu time    0.2031: real time    0.2035

 eigenvalue-minimisations  :    16
 total energy-change (2. order) :-0.8978915E-05  (-0.1440658E-05)
 number of electron       8.0000055 magnetization 
 augmentation part        0.2981690 magnetization 

 Broyden mixing:
  rms(total) = 0.52254E-03    rms(broyden)= 0.52165E-03
  rms(prec ) = 0.83339E-03
  weight for this iteration     100.00

 eigenvalues of (default mixing * dielectric matrix)
  average eigenvalue GAMMA=   1.5397
  2.4955  0.9037  1.3797  1.3797

 Free energy of the ion-electron system (eV)
  ---------------------------------------------------
  alpha Z        PSCENC =         0.68708806
  Ewald energy   TEWEN  =        56.03581613
  -Hartree energ DENC   =      -308.27844831
  -exchange      EXHF   =         0.00000000
  -V(xc)+E(xc)   XCENC  =        28.84649919
  PAW double counting   =       570.28334792     -571.83242534
  entropy T*S    EENTRO =         0.01159581
  eigenvalues    EBANDS =       -97.15599028
  atomic energy  EATOM  =       301.91090041
  Solvation  Ediel_sol  =         0.00000000
  ---------------------------------------------------
  free energy    TOTEN  =       -19.49161641 eV

  energy without entropy =      -19.50321222  energy(sigma->0) =      -19.49548168


--------------------------------------------------------------------------------------------------------




--------------------------------------- Iteration     23(   6)  ---------------------------------------


    POTLOK:  cpu time    0.1250: real time    0.1274
    SETDIJ:  cpu time    0.0156: real time    0.0040
     EDDAV:  cpu time    0.0312: real time    0.0367
       DOS:  cpu time    0.0000: real time    0.0001
    CHARGE:  cpu time    0.0156: real time    0.0085
    MIXING:  cpu time    0.0000: real time    0.0037
    --------------------------------------------
      LOOP:  cpu time    0.1875: real time    0.1804

 eigenvalue-minimisations  :    16
 total energy-change (2. order) :-0.7805019E-05  (-0.1402668E-06)
 number of electron       8.0000055 magnetization 
 augmentation part        0.2981669 magnetization 

 Broyden mixing:
  rms(total) = 0.18459E-03    rms(broyden)= 0.18433E-03
  rms(prec ) = 0.43739E-03
  weight for this iteration     100.00

 eigenvalues of (default mixing * dielectric matrix)
  average eigenvalue GAMMA=   1.5835
  2.5013  1.9869  0.9126  1.1033  1.4133

 Free energy of the ion-electron system (eV)
  ---------------------------------------------------
  alpha Z        PSCENC =         0.68708806
  Ewald energy   TEWEN  =        56.03581613
  -Hartree energ DENC   =      -308.28259645
  -exchange      EXHF   =         0.00000000
  -V(xc)+E(xc)   XCENC  =        28.84673162
  PAW double counting   =       570.33286308     -571.88196959
  entropy T*S    EENTRO =         0.01159581
  eigenvalues    EBANDS =       -97.15205329
  atomic energy  EATOM  =       301.91090041
  Solvation  Ediel_sol  =         0.00000000
  ---------------------------------------------------
  free energy    TOTEN  =       -19.49162422 eV

  energy without entropy =      -19.50322003  energy(sigma->0) =      -19.49548949


--------------------------------------------------------------------------------------------------------




--------------------------------------- Iteration     23(   7)  ---------------------------------------


    POTLOK:  cpu time    0.1094: real time    0.1181
    SETDIJ:  cpu time    0.0000: real time    0.0026
     EDDAV:  cpu time    0.0469: real time    0.0345
       DOS:  cpu time    0.0000: real time    0.0004
    CHARGE:  cpu time    0.0000: real time    0.0080
    MIXING:  cpu time    0.0156: real time    0.0072
    --------------------------------------------
      LOOP:  cpu time    0.1719: real time    0.1708

 eigenvalue-minimisations  :    16
 total energy-change (2. order) :-0.7798114E-05  (-0.7277769E-07)
 number of electron       8.0000055 magnetization 
 augmentation part        0.2981687 magnetization 

 Broyden mixing:
  rms(total) = 0.97136E-04    rms(broyden)= 0.97123E-04
  rms(prec ) = 0.26775E-03
  weight for this iteration     100.00

 eigenvalues of (default mixing * dielectric matrix)
  average eigenvalue GAMMA=   1.7241
  2.6671  2.6671  1.5348  1.5348  0.9134  1.0271

 Free energy of the ion-electron system (eV)
  ---------------------------------------------------
  alpha Z        PSCENC =         0.68708806
  Ewald energy   TEWEN  =        56.03581613
  -Hartree energ DENC   =      -308.28457091
  -exchange      EXHF   =         0.00000000
  -V(xc)+E(xc)   XCENC  =        28.84678150
  PAW double counting   =       570.33296525     -571.88202850
  entropy T*S    EENTRO =         0.01159581
  eigenvalues    EBANDS =       -97.15017976
  atomic energy  EATOM  =       301.91090041
  Solvation  Ediel_sol  =         0.00000000
  ---------------------------------------------------
  free energy    TOTEN  =       -19.49163202 eV

  energy without entropy =      -19.50322783  energy(sigma->0) =      -19.49549729


--------------------------------------------------------------------------------------------------------




--------------------------------------- Iteration     23(   8)  ---------------------------------------


    POTLOK:  cpu time    0.1094: real time    0.1223
    SETDIJ:  cpu time    0.0156: real time    0.0034
     EDDAV:  cpu time    0.0312: real time    0.0330
       DOS:  cpu time    0.0000: real time    0.0004
    CHARGE:  cpu time    0.0156: real time    0.0121
    MIXING:  cpu time    0.0000: real time    0.0077
    --------------------------------------------
      LOOP:  cpu time    0.1719: real time    0.1791

 eigenvalue-minimisations  :    16
 total energy-change (2. order) :-0.7368062E-05  (-0.1241325E-06)
 number of electron       8.0000055 magnetization 
 augmentation part        0.2981676 magnetization 

 Broyden mixing:
  rms(total) = 0.53941E-04    rms(broyden)= 0.53933E-04
  rms(prec ) = 0.10572E-03
  weight for this iteration     100.00

 eigenvalues of (default mixing * dielectric matrix)
  average eigenvalue GAMMA=   1.8042
  3.7038  2.5060  1.6817  1.6817  0.9006  1.0778  1.0778

 Free energy of the ion-electron system (eV)
  ---------------------------------------------------
  alpha Z        PSCENC =         0.68708806
  Ewald energy   TEWEN  =        56.03581613
  -Hartree energ DENC   =      -308.28804287
  -exchange      EXHF   =         0.00000000
  -V(xc)+E(xc)   XCENC  =        28.84692093
  PAW double counting   =       570.31523228     -571.86428614
  entropy T*S    EENTRO =         0.01159581
  eigenvalues    EBANDS =       -97.14686400
  atomic energy  EATOM  =       301.91090041
  Solvation  Ediel_sol  =         0.00000000
  ---------------------------------------------------
  free energy    TOTEN  =       -19.49163938 eV

  energy without entropy =      -19.50323519  energy(sigma->0) =      -19.49550465


--------------------------------------------------------------------------------------------------------




--------------------------------------- Iteration     23(   9)  ---------------------------------------


    POTLOK:  cpu time    0.1406: real time    0.1336
    SETDIJ:  cpu time    0.0000: real time    0.0027
     EDDAV:  cpu time    0.0312: real time    0.0339
       DOS:  cpu time    0.0000: real time    0.0002
    CHARGE:  cpu time    0.0156: real time    0.0103
    MIXING:  cpu time    0.0000: real time    0.0062
    --------------------------------------------
      LOOP:  cpu time    0.1875: real time    0.1868

 eigenvalue-minimisations  :    16
 total energy-change (2. order) :-0.1927882E-05  (-0.2476069E-07)
 number of electron       8.0000055 magnetization 
 augmentation part        0.2981687 magnetization 

 Broyden mixing:
  rms(total) = 0.22952E-04    rms(broyden)= 0.22947E-04
  rms(prec ) = 0.48412E-04
  weight for this iteration     100.00

 eigenvalues of (default mixing * dielectric matrix)
  average eigenvalue GAMMA=   2.0336
  5.2499  2.4862  2.4862  1.5696  1.5696  1.0087  1.0087  0.8897

 Free energy of the ion-electron system (eV)
  ---------------------------------------------------
  alpha Z        PSCENC =         0.68708806
  Ewald energy   TEWEN  =        56.03581613
  -Hartree energ DENC   =      -308.28832454
  -exchange      EXHF   =         0.00000000
  -V(xc)+E(xc)   XCENC  =        28.84693745
  PAW double counting   =       570.31254291     -571.86160050
  entropy T*S    EENTRO =         0.01159581
  eigenvalues    EBANDS =       -97.14659705
  atomic energy  EATOM  =       301.91090041
  Solvation  Ediel_sol  =         0.00000000
  ---------------------------------------------------
  free energy    TOTEN  =       -19.49164131 eV

  energy without entropy =      -19.50323712  energy(sigma->0) =      -19.49550658


--------------------------------------------------------------------------------------------------------




--------------------------------------- Iteration     23(  10)  ---------------------------------------


    POTLOK:  cpu time    0.1094: real time    0.1157
    SETDIJ:  cpu time    0.0156: real time    0.0032
     EDDAV:  cpu time    0.0312: real time    0.0412
       DOS:  cpu time    0.0000: real time    0.0001
    --------------------------------------------
      LOOP:  cpu time    0.1562: real time    0.1603

 eigenvalue-minimisations  :    16
 total energy-change (2. order) :-0.7158010E-06  (-0.1023750E-07)
 number of electron       8.0000055 magnetization 
 augmentation part        0.2981687 magnetization 

 Free energy of the ion-electron system (eV)
  ---------------------------------------------------
  alpha Z        PSCENC =         0.68708806
  Ewald energy   TEWEN  =        56.03581613
  -Hartree energ DENC   =      -308.28795122
  -exchange      EXHF   =         0.00000000
  -V(xc)+E(xc)   XCENC  =        28.84692520
  PAW double counting   =       570.31488963     -571.86395092
  entropy T*S    EENTRO =         0.01159581
  eigenvalues    EBANDS =       -97.14695513
  atomic energy  EATOM  =       301.91090041
  Solvation  Ediel_sol  =         0.00000000
  ---------------------------------------------------
  free energy    TOTEN  =       -19.49164203 eV

  energy without entropy =      -19.50323784  energy(sigma->0) =      -19.49550730


--------------------------------------------------------------------------------------------------------




 average (electrostatic) potential at core
  the test charge radii are     0.5201  0.7089
  (the norm of the test charge is              1.0000)
       1 -42.9117       2 -42.9073       3 -42.9117       4 -72.5500



 E-fermi :  -5.7150     XC(G=0):  -1.6747     alpha+bet : -0.5051


 k-point     1 :       0.0000    0.0000    0.0000
  band No.  band energies     occupation 
      1     -20.8487      2.00000
      2     -10.9226      2.00000
      3     -10.9189      2.00000
      4      -5.8833      2.00000
      5      -1.1363     -0.00000
      6       1.4667      0.00000
      7       1.6385      0.00000
      8       1.7673      0.00000


--------------------------------------------------------------------------------------------------------


 soft charge-density along one line, spin component           1
         0         1         2         3         4         5         6         7         8         9
 total charge-density along one line

 pseudopotential strength for first ion, spin component:           1
 -2.360  -4.070   0.001  -0.001   0.002
 -4.070  -6.934   0.003  -0.002   0.006
  0.001   0.003  -0.330  -0.001   0.003
 -0.001  -0.002  -0.001  -0.331  -0.002
  0.002   0.006   0.003  -0.002  -0.327
 total augmentation occupancy for first ion, spin component:           1
  3.852  -0.774  -0.269   0.214  -0.467
 -0.774   0.182   0.055  -0.047   0.095
 -0.269   0.055   0.030  -0.011   0.027
  0.214  -0.047  -0.011   0.036  -0.020
 -0.467   0.095   0.027  -0.020   0.062


------------------------ aborting loop because EDIFF is reached ----------------------------------------


    CHARGE:  cpu time    0.0156: real time    0.0079
    FORLOC:  cpu time    0.0000: real time    0.0073
    FORNL :  cpu time    0.0156: real time    0.0079
    STRESS:  cpu time    0.0625: real time    0.0625
    FORCOR:  cpu time    0.1094: real time    0.1221
    FORHAR:  cpu time    0.0469: real time    0.0434
    MIXING:  cpu time    0.0000: real time    0.0061
    OFIELD:  cpu time    0.0000: real time    0.0000

  FORCE on cell =-STRESS in cart. coord.  units (eV):
  Direction    XX          YY          ZZ          XY          YZ          ZX
  --------------------------------------------------------------------------------------
  Alpha Z     0.68709     0.68709     0.68709
  Ewald      71.40233    42.99473   -58.36127    -0.00000    -0.13563     0.00000
  Hartree   133.84133   107.41114    67.03530     0.00000    -0.04291    -0.00000
  E(xc)     -30.76062   -30.76129   -31.00809    -0.00000    -0.00019     0.00000
  Local    -274.89114  -220.05166   -98.97171     0.00000     0.14321    -0.00000
  n-local   -21.81894   -21.79829   -23.79711    -0.00000    -0.00330    -0.00000
  augment     1.18816     1.18725     1.76554    -0.00000     0.00135    -0.00000
  Kinetic   119.73370   119.62875   141.83766     0.00000     0.04209    -0.00000
  Fock        0.00000     0.00000     0.00000     0.00000     0.00000     0.00000
  -------------------------------------------------------------------------------------
  Total      -0.61809    -0.70227    -0.81259     0.00000     0.00462     0.00000
  in kB      -2.94728    -3.34870    -3.87476     0.00000     0.02201     0.00000
  external pressure =       -3.39 kB  Pullay stress =        0.00 kB


 VOLUME and BASIS-vectors are now :
 -----------------------------------------------------------------------------
  energy-cutoff  :      400.00
  volume of cell :      336.00
      direct lattice vectors                 reciprocal lattice vectors
     6.000000000  0.000000000  0.000000000     0.166666667  0.000000000  0.000000000
     0.000000000  7.000000000  0.000000000     0.000000000  0.142857143  0.000000000
     0.000000000  0.000000000  8.000000000     0.000000000  0.000000000  0.125000000

  length of vectors
     6.000000000  7.000000000  8.000000000     0.166666667  0.142857143  0.125000000


 FORCES acting on ions
    electron-ion (+dipol)            ewald-force                    non-local-force                 convergence-correction
 -----------------------------------------------------------------------------------------------
   -.552E+02 -.325E+02 0.238E+02   0.610E+02 0.358E+02 -.263E+02   -.573E+01 -.330E+01 0.252E+01   -.387E-05 0.219E-05 -.236E-04
   0.140E-13 0.649E+02 0.236E+02   0.447E-15 -.715E+02 -.261E+02   0.000E+00 0.661E+01 0.250E+01   0.166E-14 0.120E-04 -.181E-04
   0.552E+02 -.325E+02 0.238E+02   -.610E+02 0.358E+02 -.263E+02   0.573E+01 -.330E+01 0.252E+01   0.387E-05 0.219E-05 -.236E-04
   0.104E-12 0.789E-01 -.493E+02   -.212E-13 -.641E-01 0.788E+02   0.000E+00 -.195E-01 -.295E+02   0.242E-14 -.324E-04 -.386E-03
 -----------------------------------------------------------------------------------------------
   0.253E-12 0.150E-01 0.220E+02   -.701E-14 0.350E-14 0.142E-13   0.000E+00 -.148E-01 -.220E+02   0.455E-14 -.161E-04 -.451E-03


 POSITION                                       TOTAL-FORCE (eV/Angst)
 -----------------------------------------------------------------------------------
      3.81857      3.97230      3.80715         0.007493      0.004334      0.001224
      3.00000      2.55433      3.80878         0.000000     -0.003882      0.001730
      2.18143      3.97230      3.80715        -0.007493      0.004334      0.001224
      3.00000      3.50036      4.20020         0.000000     -0.004786     -0.004178
 -----------------------------------------------------------------------------------
    total drift:                                0.000000      0.000198     -0.000599


--------------------------------------------------------------------------------------------------------



  FREE ENERGIE OF THE ION-ELECTRON SYSTEM (eV)
  ---------------------------------------------------
  free  energy   TOTEN  =       -19.49164203 eV

  energy  without entropy=      -19.50323784  energy(sigma->0) =      -19.49550730

 d Force = 0.1829084E-02[ 0.177E-03, 0.348E-02]  d Energy = 0.1821045E-02 0.804E-05
 d Force =-0.1766961E+00[-0.156E+00,-0.197E+00]  d Ewald  =-0.1767390E+00 0.429E-04


--------------------------------------------------------------------------------------------------------


    POTLOK:  cpu time    0.1250: real time    0.1229


--------------------------------------------------------------------------------------------------------


 NEB: the previous image is higher in energy: T
 NEB: the next image is higher in energy    : F
 NEB: only prev energy greater

 NEB: Tangent
 ----------------------------------------------
     -0.12977     -0.07446     -0.47939
     -0.00000      0.14845     -0.47532
      0.12977     -0.07446     -0.47939
     -0.00000      0.00047      0.49762

 NEB: forces: par spring, perp REAL, dneb     0.003926    0.012601    0.000000
 NEB: distance to prev, next image, angle between     0.402278    0.401493  118.021505
 NEB: projections on to tangent (spring, REAL)    -0.003926   -0.007243

 stress matrix after NEB project (eV)
     -0.61809      0.00000      0.00000
      0.00000     -0.70227      0.00462
      0.00000      0.00462     -0.81259
  FORCES: max atom, RMS     0.008168    0.006599
  FORCE total and by dimension    0.013199    0.007062
  Stress total and by dimension    1.239180    0.812594
 OPT: skip step - force has converged


--------------------------------------------------------------------------------------------------------


  
 reached required accuracy - stopping structural energy minimisation
 writing wavefunctions
     LOOP+:  cpu time    2.5156: real time    2.5408
    4ORBIT:  cpu time    0.0000: real time    0.0000

 total amount of memory used by VASP MPI-rank0    49277. kBytes
=======================================================================

   base      :      30000. kBytes
   nonl-proj :       1166. kBytes
   fftplans  :       6115. kBytes
   grid      :      11594. kBytes
   one-center:         12. kBytes
   wavefun   :        390. kBytes

  
  
 General timing and accounting informations for this job:
 ========================================================
  
                  Total CPU time used (sec):       58.531
                            User time (sec):       53.141
                          System time (sec):        5.391
                         Elapsed time (sec):       59.164
  
                   Maximum memory used (kb):       54504.
                   Average memory used (kb):           0.
  
                          Minor page faults:       951902
                          Major page faults:            0
                 Voluntary context switches:            0
