/<?xml version="1.0" encoding="ISO-8859-1"?>
<modeling>
 <generator>
  <i name="program" type="string">vasp </i>
  <i name="version" type="string">5.4.4.18Apr17-6-g9f103f2a35  </i>
  <i name="subversion" type="string">(build Jun 30 2017 11:10:34) complex            parallel </i>
  <i name="platform" type="string">STALLO_VASP_5.4.4 </i>
  <i name="date" type="string">2018 12 17 </i>
  <i name="time" type="string">12:17:38 </i>
 </generator>
 <incar>
  <i type="string" name="PREC">a</i>
  <i type="string" name="ALGO"> V</i>
  <i type="int" name="IBRION">     6</i>
  <i type="int" name="ISIF">     3</i>
  <i name="ENCUT">    350.00000000</i>
  <i type="int" name="NEDOS">  1000</i>
  <i name="EMIN">      5.50000000</i>
  <i name="EMAX">      7.50000000</i>
  <i type="int" name="ISMEAR">     0</i>
  <i name="SIGMA">      0.01000000</i>
  <v type="int" name="KPOINT_BSE">    -1     0     0     0</v>
  <i type="logical" name="LEPSILON"> T  </i>
 </incar>
 <structure name="primitive_cell" >
  <crystal>
   <varray name="basis" >
    <v>       2.69468000       2.69468000       0.00000000 </v>
    <v>       0.00000000       2.69468000       2.69468000 </v>
    <v>       2.69468000       0.00000000       2.69468000 </v>
   </varray>
   <i name="volume">     39.13376140 </i>
   <varray name="rec_basis" >
    <v>       0.18555079       0.18555079      -0.18555079 </v>
    <v>      -0.18555079       0.18555079       0.18555079 </v>
    <v>       0.18555079      -0.18555079       0.18555079 </v>
   </varray>
  </crystal>
  <varray name="positions" >
   <v>       0.00000000       0.00000000       0.00000000 </v>
   <v>       0.25000000       0.25000000       0.25000000 </v>
  </varray>
 </structure>
 <varray name="primitive_index" >
  <v type="int" >        1 </v>
  <v type="int" >        2 </v>
 </varray>
 <kpoints>
  <generation param="Gamma">
   <v type="int" name="divisions">      11       11       11 </v>
   <v name="usershift">      0.00000000       0.00000000       0.00000000 </v>
   <v name="genvec1">      0.09090909       0.00000000       0.00000000 </v>
   <v name="genvec2">      0.00000000       0.09090909      -0.00000000 </v>
   <v name="genvec3">     -0.00000000      -0.00000000       0.09090909 </v>
   <v name="shift">      0.00000000       0.00000000       0.00000000 </v>
  </generation>
  <varray name="kpointlist" >
   <v>       0.00000000       0.00000000       0.00000000 </v>
  </varray>
  <varray name="weights" >
   <v>       0.00075131 </v>
  </varray>
 </kpoints>
 <parameters>
  <separator name="general" >
   <i type="string" name="SYSTEM">unknown system</i>
   <i type="logical" name="LCOMPAT"> F  </i>
  </separator>
  <separator name="electronic" >
   <i type="string" name="PREC">a</i>
   <i name="ENMAX">    350.00000000</i>
   <i name="ENAUG">    322.06900000</i>
   <i name="EDIFF">      0.00000100</i>
   <i type="int" name="IALGO">    48</i>
   <i type="int" name="IWAVPR">    11</i>
   <i type="int" name="NBANDS">    16</i>
   <i name="NELECT">      8.00000000</i>
   <i type="int" name="TURBO">     0</i>
   <i type="int" name="IRESTART">     0</i>
   <i type="int" name="NREBOOT">     0</i>
   <i type="int" name="NMIN">     0</i>
   <i name="EREF">      0.00000000</i>
   <separator name="electronic smearing" >
    <i type="int" name="ISMEAR">     0</i>
    <i name="SIGMA">      0.01000000</i>
    <i name="KSPACING">      0.50000000</i>
    <i type="logical" name="KGAMMA"> T  </i>
   </separator>
   <separator name="electronic projectors" >
    <i type="logical" name="LREAL"> F  </i>
    <v name="ROPT">      0.00000000</v>
    <i type="int" name="LMAXPAW">  -100</i>
    <i type="int" name="LMAXMIX">     2</i>
    <i type="logical" name="NLSPLINE"> F  </i>
   </separator>
   <separator name="electronic startup" >
    <i type="int" name="ISTART">     1</i>
    <i type="int" name="ICHARG">     0</i>
    <i type="int" name="INIWAV">     1</i>
   </separator>
   <separator name="electronic spin" >
    <i type="int" name="ISPIN">     1</i>
    <i type="logical" name="LNONCOLLINEAR"> F  </i>
    <v name="MAGMOM">      1.00000000      1.00000000</v>
    <i name="NUPDOWN">     -1.00000000</i>
    <i type="logical" name="LSORBIT"> F  </i>
    <v name="SAXIS">      0.00000000      0.00000000      1.00000000</v>
    <i type="logical" name="LSPIRAL"> F  </i>
    <v name="QSPIRAL">      0.00000000      0.00000000      0.00000000</v>
    <i type="logical" name="LZEROZ"> F  </i>
   </separator>
   <separator name="electronic exchange-correlation" >
    <i type="logical" name="LASPH"> F  </i>
    <i type="logical" name="LMETAGGA"> F  </i>
   </separator>
   <separator name="electronic convergence" >
    <i type="int" name="NELM">    60</i>
    <i type="int" name="NELMDL">     0</i>
    <i type="int" name="NELMIN">     2</i>
    <i name="ENINI">    350.00000000</i>
    <separator name="electronic convergence detail" >
     <i type="logical" name="LDIAG"> T  </i>
     <i type="logical" name="LSUBROT"> F  </i>
     <i name="WEIMIN">      0.00100000</i>
     <i name="EBREAK">      0.00000002</i>
     <i name="DEPER">      0.30000000</i>
     <i type="int" name="NRMM">     4</i>
     <i name="TIME">      0.40000000</i>
    </separator>
   </separator>
   <separator name="electronic mixer" >
    <i name="AMIX">      0.40000000</i>
    <i name="BMIX">      1.00000000</i>
    <i name="AMIN">      0.10000000</i>
    <i name="AMIX_MAG">      1.60000000</i>
    <i name="BMIX_MAG">      1.00000000</i>
    <separator name="electronic mixer details" >
     <i type="int" name="IMIX">     4</i>
     <i type="logical" name="MIXFIRST"> F  </i>
     <i type="int" name="MAXMIX">   -45</i>
     <i name="WC">    100.00000000</i>
     <i type="int" name="INIMIX">     1</i>
     <i type="int" name="MIXPRE">     1</i>
     <i type="int" name="MREMOVE">     5</i>
    </separator>
   </separator>
   <separator name="electronic dipolcorrection" >
    <i type="logical" name="LDIPOL"> F  </i>
    <i type="logical" name="LMONO"> F  </i>
    <i type="int" name="IDIPOL">     0</i>
    <i name="EPSILON">      1.00000000</i>
    <v name="DIPOL">   -100.00000000   -100.00000000   -100.00000000</v>
    <i name="EFIELD">      0.00000000</i>
   </separator>
  </separator>
  <separator name="grids" >
   <i type="int" name="NGX">    24</i>
   <i type="int" name="NGY">    24</i>
   <i type="int" name="NGZ">    24</i>
   <i type="int" name="NGXF">    48</i>
   <i type="int" name="NGYF">    48</i>
   <i type="int" name="NGZF">    48</i>
   <i type="logical" name="ADDGRID"> F  </i>
  </separator>
  <separator name="ionic" >
   <i type="int" name="NSW">    61</i>
   <i type="int" name="IBRION">     6</i>
   <i type="int" name="MDALGO">     0</i>
   <i type="int" name="ISIF">     3</i>
   <i name="PSTRESS">      0.00000000</i>
   <i name="EDIFFG">      0.00001000</i>
   <i type="int" name="NFREE">     2</i>
   <i name="POTIM">      0.50000000</i>
   <i name="SMASS">     -3.00000000</i>
   <i name="SCALEE">      1.00000000</i>
  </separator>
  <separator name="ionic md" >
   <i name="TEBEG">      0.00010000</i>
   <i name="TEEND">      0.00010000</i>
   <i type="int" name="NBLOCK">     1</i>
   <i type="int" name="KBLOCK">    61</i>
   <i type="int" name="NPACO">   256</i>
   <i name="APACO">     16.00000000</i>
  </separator>
  <separator name="symmetry" >
   <i type="int" name="ISYM">     2</i>
   <i name="SYMPREC">      0.00001000</i>
  </separator>
  <separator name="dos" >
   <i type="int" name="LORBIT">     0</i>
   <v name="RWIGS">     -1.00000000</v>
   <i type="int" name="NEDOS">  1000</i>
   <i name="EMIN">      5.50000000</i>
   <i name="EMAX">      7.50000000</i>
   <i name="EFERMI">      0.00000000</i>
  </separator>
  <separator name="writing" >
   <i type="int" name="NWRITE">     2</i>
   <i type="logical" name="LWAVE"> T  </i>
   <i type="logical" name="LDOWNSAMPLE"> F  </i>
   <i type="logical" name="LCHARG"> T  </i>
   <i type="logical" name="LPARD"> F  </i>
   <i type="logical" name="LVTOT"> F  </i>
   <i type="logical" name="LVHAR"> F  </i>
   <i type="logical" name="LELF"> F  </i>
   <i type="logical" name="LOPTICS"> F  </i>
   <v name="STM">      0.00000000      0.00000000      0.00000000      0.00000000      0.00000000      0.00000000      0.00000000</v>
  </separator>
  <separator name="performance" >
   <i type="int" name="NPAR">    16</i>
   <i type="int" name="NSIM">     4</i>
   <i type="int" name="NBLK">    -1</i>
   <i type="logical" name="LPLANE"> T  </i>
   <i type="logical" name="LSCALAPACK"> T  </i>
   <i type="logical" name="LSCAAWARE"> F  </i>
   <i type="logical" name="LSCALU"> F  </i>
   <i type="logical" name="LASYNC"> F  </i>
   <i type="logical" name="LORBITALREAL"> F  </i>
  </separator>
  <separator name="miscellaneous" >
   <i type="int" name="IDIOT">     3</i>
   <i type="int" name="ISPECIAL">     0</i>
   <i type="logical" name="LMUSIC"> F  </i>
   <v name="POMASS">     28.08500000</v>
   <v name="DARWINR">      0.00000000</v>
   <v name="DARWINV">      1.00000000</v>
   <i type="logical" name="LCORR"> T  </i>
  </separator>
  <i type="logical" name="GGA_COMPAT"> T  </i>
  <i type="logical" name="LBERRY"> F  </i>
  <i type="int" name="ICORELEVEL">     0</i>
  <i type="logical" name="LDAU"> F  </i>
  <i type="int" name="I_CONSTRAINED_M">     0</i>
  <separator name="electronic exchange-correlation" >
   <i type="string" name="GGA">--</i>
   <i type="int" name="VOSKOWN">     0</i>
   <i type="logical" name="LHFCALC"> F  </i>
   <i type="string" name="PRECFOCK"></i>
   <i type="logical" name="LSYMGRAD"> F  </i>
   <i type="logical" name="LHFONE"> F  </i>
   <i type="logical" name="LRHFCALC"> F  </i>
   <i type="logical" name="LTHOMAS"> F  </i>
   <i type="logical" name="LMODELHF"> F  </i>
   <i name="ENCUT4O">     -1.00000000</i>
   <i type="int" name="EXXOEP">     0</i>
   <i type="int" name="FOURORBIT">     0</i>
   <i name="AEXX">      0.00000000</i>
   <i name="HFALPHA">      0.00000000</i>
   <i name="MCALPHA">      0.00000000</i>
   <i name="ALDAX">      1.00000000</i>
   <i name="AGGAX">      1.00000000</i>
   <i name="ALDAC">      1.00000000</i>
   <i name="AGGAC">      1.00000000</i>
   <i type="int" name="NKREDX">     1</i>
   <i type="int" name="NKREDY">     1</i>
   <i type="int" name="NKREDZ">     1</i>
   <i type="logical" name="SHIFTRED"> F  </i>
   <i type="logical" name="ODDONLY"> F  </i>
   <i type="logical" name="EVENONLY"> F  </i>
   <i type="int" name="LMAXFOCK">     0</i>
   <i type="int" name="NMAXFOCKAE">     0</i>
   <i type="logical" name="LFOCKAEDFT"> F  </i>
   <i name="HFSCREEN">      0.00000000</i>
   <i name="HFSCREENC">      0.00000000</i>
   <i type="int" name="NBANDSGWLOW">     0</i>
  </separator>
  <separator name="vdW DFT" >
   <i type="logical" name="LUSE_VDW"> F  </i>
   <i name="Zab_VDW">     -0.84910000</i>
   <i name="PARAM1">      0.12340000</i>
   <i name="PARAM2">      1.00000000</i>
   <i name="PARAM3">      0.00000000</i>
  </separator>
  <separator name="model GW" >
   <i type="int" name="MODEL_GW">     0</i>
   <i name="MODEL_EPS0">     11.74012842</i>
   <i name="MODEL_ALPHA">      1.00000000</i>
  </separator>
  <separator name="linear response parameters" >
   <i type="logical" name="LEPSILON"> T  </i>
   <i type="logical" name="LRPA"> F  </i>
   <i type="logical" name="LNABLA"> F  </i>
   <i type="logical" name="LVEL"> F  </i>
   <i type="int" name="KINTER">     0</i>
   <i name="CSHIFT">      0.10000000</i>
   <i name="OMEGAMAX">     -1.00000000</i>
   <i name="DEG_THRESHOLD">      0.00200000</i>
   <i name="RTIME">     -0.10000000</i>
   <i name="WPLASMAI">      0.00000000</i>
   <v name="DFIELD">      0.00000000      0.00000000      0.00000000</v>
   <v name="WPLASMA">      0.00000000      0.00000000      0.00000000      0.00000000      0.00000000      0.00000000      0.00000000      0.00000000      0.00000000</v>
  </separator>
  <separator name="orbital magnetization" >
   <i type="logical" name="NUCIND"> F  </i>
   <v name="MAGPOS">      0.00000000      0.00000000      0.00000000</v>
   <i type="logical" name="LNICSALL"> T  </i>
   <i type="logical" name="ORBITALMAG"> F  </i>
   <i type="logical" name="LMAGBLOCH"> F  </i>
   <i type="logical" name="LCHIMAG"> F  </i>
   <i type="logical" name="LGAUGE"> T  </i>
   <i type="int" name="MAGATOM">     0</i>
   <v name="MAGDIPOL">      0.00000000      0.00000000      0.00000000</v>
   <v name="AVECCONST">      0.00000000      0.00000000      0.00000000</v>
  </separator>
  <separator name="response functions" >
   <i type="logical" name="LADDER"> F  </i>
   <i type="logical" name="LRPAFORCE"> F  </i>
   <i type="logical" name="LFXC"> F  </i>
   <i type="logical" name="LHARTREE"> T  </i>
   <i type="int" name="IBSE">     0</i>
   <v type="int" name="KPOINT">    -1     0     0     0</v>
   <i type="logical" name="LTCTE"> F  </i>
   <i type="logical" name="LTETE"> F  </i>
   <i type="logical" name="LTRIPLET"> F  </i>
   <i type="logical" name="LFXCEPS"> F  </i>
   <i type="logical" name="LFXHEG"> F  </i>
   <i type="int" name="NATURALO">     2</i>
   <i type="logical" name="L2ORDER"> F  </i>
   <i type="logical" name="LMP2LT"> F  </i>
   <i type="logical" name="LUSEW"> F  </i>
   <i name="ENCUTGW">     -2.00000000</i>
   <i name="ENCUTGWSOFT">     -2.00000000</i>
   <i name="ENCUTLF">     -1.00000000</i>
   <i type="int" name="LMAXMP2">    -1</i>
   <i name="SCISSOR">      0.00000000</i>
   <i type="int" name="NOMEGA">     0</i>
   <i type="int" name="NOMEGAR">     0</i>
   <i type="int" name="NBANDSGW">    -1</i>
   <i type="int" name="NBANDSO">    -1</i>
   <i type="int" name="NBANDSV">    -1</i>
   <i type="int" name="NELM">     1</i>
   <i type="int" name="NELMHF">     1</i>
   <i type="int" name="DIM">     3</i>
   <i type="int" name="ANTIRES">     0</i>
   <i name="OMEGAMAX">    -30.00000000</i>
   <i name="OMEGAMIN">    -30.00000000</i>
   <i name="OMEGATL">   -200.00000000</i>
   <i type="int" name="OMEGAGRID">   140</i>
   <i name="CSHIFT">     -0.10000000</i>
   <i type="logical" name="SELFENERGY"> F  </i>
   <i type="logical" name="LSPECTRAL"> F  </i>
   <i type="logical" name="LSPECTRALGW"> F  </i>
   <i type="logical" name="LSINGLES"> F  </i>
   <i type="logical" name="LFERMIGW"> F  </i>
   <i type="logical" name="ODDONLYGW"> F  </i>
   <i type="logical" name="EVENONLYGW"> F  </i>
   <i type="int" name="NKREDLFX">     1</i>
   <i type="int" name="NKREDLFY">     1</i>
   <i type="int" name="NKREDLFZ">     1</i>
   <i type="int" name="MAXMEM">  2800</i>
   <i type="int" name="TELESCOPE">     0</i>
   <i type="int" name="TAUPAR">     1</i>
   <i type="int" name="OMEGAPAR">    -1</i>
   <i name="LAMBDA">      1.00000000</i>
  </separator>
  <separator name="External order field" >
   <i name="OFIELD_KAPPA">      0.00000000</i>
   <v name="OFIELD_K">      0.00000000      0.00000000      0.00000000</v>
   <i name="OFIELD_Q6_NEAR">      0.00000000</i>
   <i name="OFIELD_Q6_FAR">      0.00000000</i>
   <i name="OFIELD_A">      0.00000000</i>
  </separator>
 </parameters>
 <atominfo>
  <atoms>       2 </atoms>
  <types>       1 </types>
  <array name="atoms" >
   <dimension dim="1">ion</dimension>
   <field type="string">element</field>
   <field type="int">atomtype</field>
   <set>
    <rc><c>Si</c><c>   1</c></rc>
    <rc><c>Si</c><c>   1</c></rc>
   </set>
  </array>
  <array name="atomtypes" >
   <dimension dim="1">type</dimension>
   <field type="int">atomspertype</field>
   <field type="string">element</field>
   <field>mass</field>
   <field>valence</field>
   <field type="string">pseudopotential</field>
   <set>
    <rc><c>   2</c><c>Si</c><c>     28.08500000</c><c>      4.00000000</c><c> PAW_PBE Si 05Jan2001                   </c></rc>
   </set>
  </array>
 </atominfo>
 <structure name="initialpos" >
  <crystal>
   <varray name="basis" >
    <v>       2.69468000       2.69468000       0.00000000 </v>
    <v>       0.00000000       2.69468000       2.69468000 </v>
    <v>       2.69468000       0.00000000       2.69468000 </v>
   </varray>
   <i name="volume">     39.13376140 </i>
   <varray name="rec_basis" >
    <v>       0.18555079       0.18555079      -0.18555079 </v>
    <v>      -0.18555079       0.18555079       0.18555079 </v>
    <v>       0.18555079      -0.18555079       0.18555079 </v>
   </varray>
  </crystal>
  <varray name="positions" >
   <v>       0.00000000       0.00000000       0.00000000 </v>
   <v>       0.25000000       0.25000000       0.25000000 </v>
  </varray>
 </structure>
 <calculation>
  <scstep>
   <time name="diag">    0.09    0.09</time>
   <time name="diis">    0.06    0.06</time>
   <time name="orth">    0.05    0.05</time>
   <time name="total">    0.22    0.23</time>
   <energy>
    <i name="alphaZ">      3.44082216 </i>
    <i name="ewald">   -230.28707311 </i>
    <i name="hartreedc">    -14.64595560 </i>
    <i name="XCdc">    -17.85745127 </i>
    <i name="pawpsdc">     75.11447726 </i>
    <i name="pawaedc">    -40.17327266 </i>
    <i name="eentropy">     -0.00000000 </i>
    <i name="bandstr">      7.45231796 </i>
    <i name="atom">    206.13125414 </i>
    <i name="e_fr_energy">    -10.82488111 </i>
    <i name="e_wo_entrp">    -10.82488111 </i>
    <i name="e_0_energy">    -10.82488111 </i>
   </energy>
  </scstep>
  <scstep>
   <time name="diag">    0.09    0.09</time>
   <time name="diis">    0.05    0.06</time>
   <time name="orth">    0.05    0.05</time>
   <time name="total">    0.21    0.21</time>
   <energy>
    <i name="e_fr_energy">    -10.82489397 </i>
    <i name="e_wo_entrp">    -10.82489397 </i>
    <i name="e_0_energy">    -10.82489397 </i>
   </energy>
  </scstep>
  <scstep>
   <time name="diag">    0.09    0.09</time>
   <time name="diis">    0.06    0.06</time>
   <time name="orth">    0.05    0.05</time>
   <time name="total">    0.20    0.20</time>
   <energy>
    <i name="alphaZ">      3.44082216 </i>
    <i name="ewald">   -230.28707311 </i>
    <i name="hartreedc">    -14.65165652 </i>
    <i name="XCdc">    -17.85669550 </i>
    <i name="pawpsdc">     75.11320046 </i>
    <i name="pawaedc">    -40.17213250 </i>
    <i name="eentropy">     -0.00000000 </i>
    <i name="bandstr">      7.45738606 </i>
    <i name="atom">    206.13125414 </i>
    <i name="e_fr_energy">    -10.82489481 </i>
    <i name="e_wo_entrp">    -10.82489481 </i>
    <i name="e_0_energy">    -10.82489481 </i>
   </energy>
  </scstep>
  <structure>
   <crystal>
    <varray name="basis" >
     <v>       2.69468000       2.69468000       0.00000000 </v>
     <v>       0.00000000       2.69468000       2.69468000 </v>
     <v>       2.69468000       0.00000000       2.69468000 </v>
    </varray>
    <i name="volume">     39.13376140 </i>
    <varray name="rec_basis" >
     <v>       0.18555079       0.18555079      -0.18555079 </v>
     <v>      -0.18555079       0.18555079       0.18555079 </v>
     <v>       0.18555079      -0.18555079       0.18555079 </v>
    </varray>
   </crystal>
   <varray name="positions" >
    <v>       0.00000000       0.00000000       0.00000000 </v>
    <v>       0.25000000       0.25000000       0.25000000 </v>
   </varray>
  </structure>
  <varray name="forces" >
   <v>       0.00000000       0.00000000       0.00000000 </v>
   <v>      -0.00000000      -0.00000000      -0.00000000 </v>
  </varray>
  <varray name="stress" >
   <v>      42.27815566       0.00000000      -0.00000000 </v>
   <v>       0.00000000      42.27815566       0.00000000 </v>
   <v>      -0.00000000       0.00000000      42.27815566 </v>
  </varray>
  <scstep>
   <time name="total">    0.27    0.27</time>
   <energy>
    <i name="e_fr_energy">    -41.84754944 </i>
    <i name="e_wo_entrp">    -41.84754944 </i>
    <i name="e_0_energy">    -41.84754944 </i>
   </energy>
  </scstep>
  <scstep>
   <time name="total">    0.26    0.26</time>
   <energy>
    <i name="e_fr_energy">    -34.73799049 </i>
    <i name="e_wo_entrp">    -34.73799049 </i>
    <i name="e_0_energy">    -34.73799049 </i>
   </energy>
  </scstep>
  <scstep>
   <time name="total">    0.21    0.21</time>
   <energy>
    <i name="e_fr_energy">    -34.72930747 </i>
    <i name="e_wo_entrp">    -34.72930747 </i>
    <i name="e_0_energy">    -34.72930747 </i>
   </energy>
  </scstep>
  <scstep>
   <time name="total">    0.20    0.20</time>
   <energy>
    <i name="e_fr_energy">    -34.72891452 </i>
    <i name="e_wo_entrp">    -34.72891452 </i>
    <i name="e_0_energy">    -34.72891452 </i>
   </energy>
  </scstep>
  <scstep>
   <time name="total">    0.20    0.20</time>
   <energy>
    <i name="e_fr_energy">    -34.72890603 </i>
    <i name="e_wo_entrp">    -34.72890603 </i>
    <i name="e_0_energy">    -34.72890603 </i>
   </energy>
  </scstep>
  <scstep>
   <time name="total">    0.20    0.20</time>
   <energy>
    <i name="e_fr_energy">    -34.72890582 </i>
    <i name="e_wo_entrp">    -34.72890582 </i>
    <i name="e_0_energy">    -34.72890582 </i>
   </energy>
  </scstep>
  <scstep>
   <time name="total">    0.27    0.27</time>
   <energy>
    <i name="e_fr_energy">    -21.95756822 </i>
    <i name="e_wo_entrp">    -21.95756822 </i>
    <i name="e_0_energy">    -21.95756822 </i>
   </energy>
  </scstep>
  <scstep>
   <time name="total">    0.25    0.25</time>
   <energy>
    <i name="e_fr_energy">    -18.33026004 </i>
    <i name="e_wo_entrp">    -18.33026004 </i>
    <i name="e_0_energy">    -18.33026004 </i>
   </energy>
  </scstep>
  <scstep>
   <time name="total">    0.21    0.21</time>
   <energy>
    <i name="e_fr_energy">    -18.27839825 </i>
    <i name="e_wo_entrp">    -18.27839825 </i>
    <i name="e_0_energy">    -18.27839825 </i>
   </energy>
  </scstep>
  <scstep>
   <time name="total">    0.19    0.19</time>
   <energy>
    <i name="e_fr_energy">    -18.27672828 </i>
    <i name="e_wo_entrp">    -18.27672828 </i>
    <i name="e_0_energy">    -18.27672828 </i>
   </energy>
  </scstep>
  <scstep>
   <time name="total">    0.19    0.19</time>
   <energy>
    <i name="e_fr_energy">    -18.27672065 </i>
    <i name="e_wo_entrp">    -18.27672065 </i>
    <i name="e_0_energy">    -18.27672065 </i>
   </energy>
  </scstep>
  <scstep>
   <time name="total">    0.19    0.19</time>
   <energy>
    <i name="e_fr_energy">    -18.27672119 </i>
    <i name="e_wo_entrp">    -18.27672119 </i>
    <i name="e_0_energy">    -18.27672119 </i>
   </energy>
  </scstep>
  <scstep>
   <time name="total">    0.27    0.27</time>
   <energy>
    <i name="e_fr_energy">    -42.31742635 </i>
    <i name="e_wo_entrp">    -42.31742635 </i>
    <i name="e_0_energy">    -42.31742635 </i>
   </energy>
  </scstep>
  <scstep>
   <time name="total">    0.26    0.26</time>
   <energy>
    <i name="e_fr_energy">    -33.38363765 </i>
    <i name="e_wo_entrp">    -33.38363765 </i>
    <i name="e_0_energy">    -33.38363765 </i>
   </energy>
  </scstep>
  <scstep>
   <time name="total">    0.21    0.22</time>
   <energy>
    <i name="e_fr_energy">    -33.35226915 </i>
    <i name="e_wo_entrp">    -33.35226915 </i>
    <i name="e_0_energy">    -33.35226915 </i>
   </energy>
  </scstep>
  <scstep>
   <time name="total">    0.20    0.20</time>
   <energy>
    <i name="e_fr_energy">    -33.35134939 </i>
    <i name="e_wo_entrp">    -33.35134939 </i>
    <i name="e_0_energy">    -33.35134939 </i>
   </energy>
  </scstep>
  <scstep>
   <time name="total">    0.20    0.20</time>
   <energy>
    <i name="e_fr_energy">    -33.35134148 </i>
    <i name="e_wo_entrp">    -33.35134148 </i>
    <i name="e_0_energy">    -33.35134148 </i>
   </energy>
  </scstep>
  <scstep>
   <time name="total">    0.20    0.20</time>
   <energy>
    <i name="e_fr_energy">    -33.35134135 </i>
    <i name="e_wo_entrp">    -33.35134135 </i>
    <i name="e_0_energy">    -33.35134135 </i>
   </energy>
  </scstep>
  <kpoints>
   <generation param="Gamma">
    <v type="int" name="divisions">      11       11       11 </v>
    <v name="usershift">      0.00000000       0.00000000       0.00000000 </v>
    <v name="genvec1">      0.09090909       0.00000000       0.00000000 </v>
    <v name="genvec2">      0.00000000       0.09090909      -0.00000000 </v>
    <v name="genvec3">     -0.00000000      -0.00000000       0.09090909 </v>
    <v name="shift">      0.00000000       0.00000000       0.00000000 </v>
   </generation>
   <varray name="kpointlist" >
    <v>       0.00000000       0.00000000       0.00000000 </v>
   </varray>
   <varray name="weights" >
    <v>       0.00075131 </v>
   </varray>
  </kpoints>
  <scstep>
   <time name="total">    0.69    0.69</time>
   <energy>
    <i name="e_fr_energy">     -1.31818294 </i>
    <i name="e_wo_entrp">     -1.31818294 </i>
    <i name="e_0_energy">     -1.31818294 </i>
   </energy>
  </scstep>
  <scstep>
   <time name="total">    0.70    0.70</time>
   <energy>
    <i name="e_fr_energy">     -1.36959728 </i>
    <i name="e_wo_entrp">     -1.36959728 </i>
    <i name="e_0_energy">     -1.36959728 </i>
   </energy>
  </scstep>
  <scstep>
   <time name="total">    0.63    0.63</time>
   <energy>
    <i name="e_fr_energy">     -1.33423985 </i>
    <i name="e_wo_entrp">     -1.33423985 </i>
    <i name="e_0_energy">     -1.33423985 </i>
   </energy>
  </scstep>
  <scstep>
   <time name="total">    0.63    0.63</time>
   <energy>
    <i name="e_fr_energy">     -1.38259029 </i>
    <i name="e_wo_entrp">     -1.38259029 </i>
    <i name="e_0_energy">     -1.38259029 </i>
   </energy>
  </scstep>
  <scstep>
   <time name="total">    0.63    0.63</time>
   <energy>
    <i name="e_fr_energy">     -1.40369237 </i>
    <i name="e_wo_entrp">     -1.40369237 </i>
    <i name="e_0_energy">     -1.40369237 </i>
   </energy>
  </scstep>
  <scstep>
   <time name="total">    0.64    0.65</time>
   <energy>
    <i name="e_fr_energy">     -1.40448734 </i>
    <i name="e_wo_entrp">     -1.40448734 </i>
    <i name="e_0_energy">     -1.40448734 </i>
   </energy>
  </scstep>
  <scstep>
   <time name="total">    0.63    0.63</time>
   <energy>
    <i name="e_fr_energy">     -1.40515761 </i>
    <i name="e_wo_entrp">     -1.40515761 </i>
    <i name="e_0_energy">     -1.40515761 </i>
   </energy>
  </scstep>
  <scstep>
   <time name="total">    0.64    0.64</time>
   <energy>
    <i name="e_fr_energy">     -1.40516694 </i>
    <i name="e_wo_entrp">     -1.40516694 </i>
    <i name="e_0_energy">     -1.40516694 </i>
   </energy>
  </scstep>
  <scstep>
   <time name="total">    0.64    0.64</time>
   <energy>
    <i name="e_fr_energy">     -1.40516964 </i>
    <i name="e_wo_entrp">     -1.40516964 </i>
    <i name="e_0_energy">     -1.40516964 </i>
   </energy>
  </scstep>
  <scstep>
   <time name="total">    0.64    0.64</time>
   <energy>
    <i name="e_fr_energy">     -1.40516919 </i>
    <i name="e_wo_entrp">     -1.40516919 </i>
    <i name="e_0_energy">     -1.40516919 </i>
   </energy>
  </scstep>
  <kpoints>
   <generation param="Gamma">
    <v type="int" name="divisions">      11       11       11 </v>
    <v name="usershift">      0.00000000       0.00000000       0.00000000 </v>
    <v name="genvec1">      0.09090909       0.00000000       0.00000000 </v>
    <v name="genvec2">      0.00000000       0.09090909      -0.00000000 </v>
    <v name="genvec3">     -0.00000000      -0.00000000       0.09090909 </v>
    <v name="shift">      0.00000000       0.00000000       0.00000000 </v>
   </generation>
   <varray name="kpointlist" >
    <v>       0.00000000       0.00000000       0.00000000 </v>
   </varray>
   <varray name="weights" >
    <v>       0.00075131 </v>
   </varray>
  </kpoints>
  <scstep>
   <time name="total">    0.70    0.70</time>
   <energy>
    <i name="e_fr_energy">     -1.31825036 </i>
    <i name="e_wo_entrp">     -1.31825036 </i>
    <i name="e_0_energy">     -1.31825036 </i>
   </energy>
  </scstep>
  <scstep>
   <time name="total">    0.70    0.70</time>
   <energy>
    <i name="e_fr_energy">     -1.36959735 </i>
    <i name="e_wo_entrp">     -1.36959735 </i>
    <i name="e_0_energy">     -1.36959735 </i>
   </energy>
  </scstep>
  <scstep>
   <time name="total">    0.63    0.63</time>
   <energy>
    <i name="e_fr_energy">     -1.33424496 </i>
    <i name="e_wo_entrp">     -1.33424496 </i>
    <i name="e_0_energy">     -1.33424496 </i>
   </energy>
  </scstep>
  <scstep>
   <time name="total">    0.63    0.63</time>
   <energy>
    <i name="e_fr_energy">     -1.38259168 </i>
    <i name="e_wo_entrp">     -1.38259168 </i>
    <i name="e_0_energy">     -1.38259168 </i>
   </energy>
  </scstep>
  <scstep>
   <time name="total">    0.63    0.63</time>
   <energy>
    <i name="e_fr_energy">     -1.40369033 </i>
    <i name="e_wo_entrp">     -1.40369033 </i>
    <i name="e_0_energy">     -1.40369033 </i>
   </energy>
  </scstep>
  <scstep>
   <time name="total">    0.64    0.64</time>
   <energy>
    <i name="e_fr_energy">     -1.40448805 </i>
    <i name="e_wo_entrp">     -1.40448805 </i>
    <i name="e_0_energy">     -1.40448805 </i>
   </energy>
  </scstep>
  <scstep>
   <time name="total">    0.63    0.63</time>
   <energy>
    <i name="e_fr_energy">     -1.40515764 </i>
    <i name="e_wo_entrp">     -1.40515764 </i>
    <i name="e_0_energy">     -1.40515764 </i>
   </energy>
  </scstep>
  <scstep>
   <time name="total">    0.65    0.65</time>
   <energy>
    <i name="e_fr_energy">     -1.40516698 </i>
    <i name="e_wo_entrp">     -1.40516698 </i>
    <i name="e_0_energy">     -1.40516698 </i>
   </energy>
  </scstep>
  <scstep>
   <time name="total">    0.64    0.64</time>
   <energy>
    <i name="e_fr_energy">     -1.40516965 </i>
    <i name="e_wo_entrp">     -1.40516965 </i>
    <i name="e_0_energy">     -1.40516965 </i>
   </energy>
  </scstep>
  <scstep>
   <time name="total">    0.64    0.64</time>
   <energy>
    <i name="e_fr_energy">     -1.40516922 </i>
    <i name="e_wo_entrp">     -1.40516922 </i>
    <i name="e_0_energy">     -1.40516922 </i>
   </energy>
  </scstep>
  <kpoints>
   <generation param="Gamma">
    <v type="int" name="divisions">      11       11       11 </v>
    <v name="usershift">      0.00000000       0.00000000       0.00000000 </v>
    <v name="genvec1">      0.09090909       0.00000000       0.00000000 </v>
    <v name="genvec2">      0.00000000       0.09090909      -0.00000000 </v>
    <v name="genvec3">     -0.00000000      -0.00000000       0.09090909 </v>
    <v name="shift">      0.00000000       0.00000000       0.00000000 </v>
   </generation>
   <varray name="kpointlist" >
    <v>       0.00000000       0.00000000       0.00000000 </v>
   </varray>
   <varray name="weights" >
    <v>       0.00075131 </v>
   </varray>
  </kpoints>
  <scstep>
   <time name="total">    0.77    0.77</time>
   <energy>
    <i name="e_fr_energy">     -1.31869150 </i>
    <i name="e_wo_entrp">     -1.31869150 </i>
    <i name="e_0_energy">     -1.31869150 </i>
   </energy>
  </scstep>
  <scstep>
   <time name="total">    0.79    0.79</time>
   <energy>
    <i name="e_fr_energy">     -1.36959642 </i>
    <i name="e_wo_entrp">     -1.36959642 </i>
    <i name="e_0_energy">     -1.36959642 </i>
   </energy>
  </scstep>
  <scstep>
   <time name="total">    0.72    0.72</time>
   <energy>
    <i name="e_fr_energy">     -1.33423396 </i>
    <i name="e_wo_entrp">     -1.33423396 </i>
    <i name="e_0_energy">     -1.33423396 </i>
   </energy>
  </scstep>
  <scstep>
   <time name="total">    0.71    0.71</time>
   <energy>
    <i name="e_fr_energy">     -1.38258717 </i>
    <i name="e_wo_entrp">     -1.38258717 </i>
    <i name="e_0_energy">     -1.38258717 </i>
   </energy>
  </scstep>
  <scstep>
   <time name="total">    0.71    0.71</time>
   <energy>
    <i name="e_fr_energy">     -1.40369384 </i>
    <i name="e_wo_entrp">     -1.40369384 </i>
    <i name="e_0_energy">     -1.40369384 </i>
   </energy>
  </scstep>
  <scstep>
   <time name="total">    0.72    0.73</time>
   <energy>
    <i name="e_fr_energy">     -1.40448680 </i>
    <i name="e_wo_entrp">     -1.40448680 </i>
    <i name="e_0_energy">     -1.40448680 </i>
   </energy>
  </scstep>
  <scstep>
   <time name="total">    0.71    0.71</time>
   <energy>
    <i name="e_fr_energy">     -1.40515774 </i>
    <i name="e_wo_entrp">     -1.40515774 </i>
    <i name="e_0_energy">     -1.40515774 </i>
   </energy>
  </scstep>
  <scstep>
   <time name="total">    0.72    0.73</time>
   <energy>
    <i name="e_fr_energy">     -1.40516704 </i>
    <i name="e_wo_entrp">     -1.40516704 </i>
    <i name="e_0_energy">     -1.40516704 </i>
   </energy>
  </scstep>
  <scstep>
   <time name="total">    0.73    0.73</time>
   <energy>
    <i name="e_fr_energy">     -1.40516970 </i>
    <i name="e_wo_entrp">     -1.40516970 </i>
    <i name="e_0_energy">     -1.40516970 </i>
   </energy>
  </scstep>
  <scstep>
   <time name="total">    0.73    0.73</time>
   <energy>
    <i name="e_fr_energy">     -1.40516927 </i>
    <i name="e_wo_entrp">     -1.40516927 </i>
    <i name="e_0_energy">     -1.40516927 </i>
   </energy>
  </scstep>
  <kpoints>
   <generation param="Gamma">
    <v type="int" name="divisions">      11       11       11 </v>
    <v name="usershift">      0.00000000       0.00000000       0.00000000 </v>
    <v name="genvec1">      0.09090909       0.00000000       0.00000000 </v>
    <v name="genvec2">      0.00000000       0.09090909      -0.00000000 </v>
    <v name="genvec3">     -0.00000000      -0.00000000       0.09090909 </v>
    <v name="shift">      0.00000000       0.00000000       0.00000000 </v>
   </generation>
   <varray name="kpointlist" >
    <v>       0.00000000       0.00000000       0.00000000 </v>
   </varray>
   <varray name="weights" >
    <v>       0.00075131 </v>
   </varray>
  </kpoints>
  <varray name="epsilon" >
   <v>      13.05544887      -0.00000000       0.00000000 </v>
   <v>      -0.00000000      13.05544887      -0.00000000 </v>
   <v>       0.00000000       0.00000000      13.05544887 </v>
  </varray>
  <kpoints>
   <generation param="Gamma">
    <v type="int" name="divisions">      11       11       11 </v>
    <v name="usershift">      0.00000000       0.00000000       0.00000000 </v>
    <v name="genvec1">      0.09090909       0.00000000       0.00000000 </v>
    <v name="genvec2">      0.00000000       0.09090909      -0.00000000 </v>
    <v name="genvec3">     -0.00000000      -0.00000000       0.09090909 </v>
    <v name="shift">      0.00000000       0.00000000       0.00000000 </v>
   </generation>
   <varray name="kpointlist" >
    <v>       0.00000000       0.00000000       0.00000000 </v>
   </varray>
   <varray name="weights" >
    <v>       0.00075131 </v>
   </varray>
  </kpoints>
  <array name="born_charges" >
   <dimension dim="1">ion</dimension>
   <set>
    <v>       0.00000000       0.00000000      -0.00000000 </v>
    <v>      -0.00000000       0.00000000       0.00000000 </v>
    <v>       0.00000000      -0.00000000       0.00000000 </v>
   </set>
   <set>
    <v>      -0.00000000      -0.00000000       0.00000000 </v>
    <v>       0.00000000       0.00000000      -0.00000000 </v>
    <v>      -0.00000000       0.00000000       0.00000000 </v>
   </set>
  </array>
  <energy>
   <i name="e_fr_energy">    -10.82489481 </i>
   <i name="e_wo_entrp">    -10.82489481 </i>
   <i name="e_0_energy">     -0.00000000 </i>
  </energy>
  <kpoints>
   <generation param="Gamma">
    <v type="int" name="divisions">      11       11       11 </v>
    <v name="usershift">      0.00000000       0.00000000       0.00000000 </v>
    <v name="genvec1">      0.09090909       0.00000000       0.00000000 </v>
    <v name="genvec2">     -0.00000000       0.09090909      -0.00000000 </v>
    <v name="genvec3">      0.00000000      -0.00000000       0.09090909 </v>
    <v name="shift">      0.00000000       0.00000000       0.00000000 </v>
   </generation>
   <varray name="kpointlist" >
    <v>       0.00000000       0.00000000       0.00000000 </v>
   </varray>
   <varray name="weights" >
    <v>       0.00075131 </v>
   </varray>
  </kpoints>
  <time name="totalsc">   30.99   31.15</time>
 </calculation>
 <calculation>
  <scstep>
   <time name="diag">    0.20    0.21</time>
   <time name="diis">    0.28    0.28</time>
   <time name="orth">    0.11    0.11</time>
   <time name="total">    0.62    0.62</time>
   <energy>
    <i name="alphaZ">      3.38997258 </i>
    <i name="ewald">   -229.15478007 </i>
    <i name="hartreedc">    -14.57765411 </i>
    <i name="XCdc">    -17.93006845 </i>
    <i name="pawpsdc">     75.11304460 </i>
    <i name="pawaedc">    -40.17196948 </i>
    <i name="eentropy">     -0.00000000 </i>
    <i name="bandstr">      6.36339765 </i>
    <i name="atom">    206.13125414 </i>
    <i name="e_fr_energy">    -10.83680313 </i>
    <i name="e_wo_entrp">    -10.83680313 </i>
    <i name="e_0_energy">    -10.83680313 </i>
   </energy>
  </scstep>
  <scstep>
   <time name="diag">    0.20    0.20</time>
   <time name="diis">    0.19    0.20</time>
   <time name="orth">    0.11    0.11</time>
   <time name="total">    0.53    0.54</time>
   <energy>
    <i name="e_fr_energy">    -10.83607759 </i>
    <i name="e_wo_entrp">    -10.83607759 </i>
    <i name="e_0_energy">    -10.83607759 </i>
   </energy>
  </scstep>
  <scstep>
   <time name="diag">    0.20    0.20</time>
   <time name="diis">    0.19    0.19</time>
   <time name="orth">    0.11    0.11</time>
   <time name="total">    0.53    0.53</time>
   <energy>
    <i name="e_fr_energy">    -10.83569771 </i>
    <i name="e_wo_entrp">    -10.83569771 </i>
    <i name="e_0_energy">    -10.83569771 </i>
   </energy>
  </scstep>
  <scstep>
   <time name="diag">    0.20    0.20</time>
   <time name="diis">    0.19    0.20</time>
   <time name="orth">    0.11    0.11</time>
   <time name="total">    0.53    0.53</time>
   <energy>
    <i name="e_fr_energy">    -10.83569475 </i>
    <i name="e_wo_entrp">    -10.83569475 </i>
    <i name="e_0_energy">    -10.83569475 </i>
   </energy>
  </scstep>
  <scstep>
   <time name="diag">    0.20    0.20</time>
   <time name="diis">    0.17    0.17</time>
   <time name="orth">    0.11    0.11</time>
   <time name="total">    0.48    0.48</time>
   <energy>
    <i name="alphaZ">      3.38997258 </i>
    <i name="ewald">   -229.15478007 </i>
    <i name="hartreedc">    -14.82051696 </i>
    <i name="XCdc">    -17.92623644 </i>
    <i name="pawpsdc">     74.60053332 </i>
    <i name="pawaedc">    -39.64544950 </i>
    <i name="eentropy">     -0.00000000 </i>
    <i name="bandstr">      6.58952910 </i>
    <i name="atom">    206.13125414 </i>
    <i name="e_fr_energy">    -10.83569383 </i>
    <i name="e_wo_entrp">    -10.83569383 </i>
    <i name="e_0_energy">    -10.83569383 </i>
   </energy>
  </scstep>
  <structure>
   <crystal>
    <varray name="basis" >
     <v>       2.73510020       2.69468000       0.00000000 </v>
     <v>       0.00000000       2.69468000       2.69468000 </v>
     <v>       2.73510020       0.00000000       2.69468000 </v>
    </varray>
    <i name="volume">     39.72076782 </i>
    <varray name="rec_basis" >
     <v>       0.18280866       0.18555079      -0.18555079 </v>
     <v>      -0.18280866       0.18555079       0.18555079 </v>
     <v>       0.18280866      -0.18555079       0.18555079 </v>
    </varray>
   </crystal>
   <varray name="positions" >
    <v>       0.00000000       0.00000000       0.00000000 </v>
    <v>       0.25000000       0.25000000       0.25000000 </v>
   </varray>
  </structure>
  <varray name="forces" >
   <v>       0.00000000      -0.00000000       0.00000000 </v>
   <v>      -0.00000000       0.00000000      -0.00000000 </v>
  </varray>
  <varray name="stress" >
   <v>      16.88234386       0.00000000       0.00000000 </v>
   <v>       0.00000000      31.72383326      -0.00000000 </v>
   <v>       0.00000000       0.00000000      31.72383326 </v>
  </varray>
  <energy>
   <i name="e_fr_energy">    -10.83569383 </i>
   <i name="e_wo_entrp">    -10.83569383 </i>
   <i name="e_0_energy">     -0.00000000 </i>
  </energy>
  <kpoints>
   <generation param="Gamma">
    <v type="int" name="divisions">      11       11       11 </v>
    <v name="usershift">      0.00000000       0.00000000       0.00000000 </v>
    <v name="genvec1">      0.09090909       0.00000000       0.00000000 </v>
    <v name="genvec2">      0.00000000       0.09090909      -0.00000000 </v>
    <v name="genvec3">     -0.00000000      -0.00000000       0.09090909 </v>
    <v name="shift">      0.00000000       0.00000000       0.00000000 </v>
   </generation>
   <varray name="kpointlist" >
    <v>       0.00000000       0.00000000       0.00000000 </v>
   </varray>
   <varray name="weights" >
    <v>       0.00075131 </v>
   </varray>
  </kpoints>
  <time name="totalsc">    3.09    3.10</time>
 </calculation>
 <calculation>
  <scstep>
   <time name="diag">    0.20    0.20</time>
   <time name="diis">    0.20    0.20</time>
   <time name="orth">    0.11    0.11</time>
   <time name="total">    0.54    0.54</time>
   <energy>
    <i name="alphaZ">      3.49322047 </i>
    <i name="ewald">   -231.45824020 </i>
    <i name="hartreedc">    -14.97010683 </i>
    <i name="XCdc">    -17.77981308 </i>
    <i name="pawpsdc">     74.60620154 </i>
    <i name="pawaedc">    -39.65122507 </i>
    <i name="eentropy">     -0.00000000 </i>
    <i name="bandstr">      8.81951262 </i>
    <i name="atom">    206.13125414 </i>
    <i name="e_fr_energy">    -10.80919640 </i>
    <i name="e_wo_entrp">    -10.80919640 </i>
    <i name="e_0_energy">    -10.80919640 </i>
   </energy>
  </scstep>
  <scstep>
   <time name="diag">    0.20    0.20</time>
   <time name="diis">    0.17    0.17</time>
   <time name="orth">    0.10    0.11</time>
   <time name="total">    0.50    0.50</time>
   <energy>
    <i name="e_fr_energy">    -10.80616399 </i>
    <i name="e_wo_entrp">    -10.80616399 </i>
    <i name="e_0_energy">    -10.80616399 </i>
   </energy>
  </scstep>
  <scstep>
   <time name="diag">    0.20    0.20</time>
   <time name="diis">    0.17    0.17</time>
   <time name="orth">    0.11    0.11</time>
   <time name="total">    0.50    0.50</time>
   <energy>
    <i name="e_fr_energy">    -10.80465126 </i>
    <i name="e_wo_entrp">    -10.80465126 </i>
    <i name="e_0_energy">    -10.80465126 </i>
   </energy>
  </scstep>
  <scstep>
   <time name="diag">    0.20    0.20</time>
   <time name="diis">    0.17    0.17</time>
   <time name="orth">    0.10    0.10</time>
   <time name="total">    0.50    0.50</time>
   <energy>
    <i name="e_fr_energy">    -10.80465749 </i>
    <i name="e_wo_entrp">    -10.80465749 </i>
    <i name="e_0_energy">    -10.80465749 </i>
   </energy>
  </scstep>
  <scstep>
   <time name="diag">    0.20    0.20</time>
   <time name="diis">    0.17    0.17</time>
   <time name="orth">    0.10    0.10</time>
   <time name="total">    0.50    0.50</time>
   <energy>
    <i name="e_fr_energy">    -10.80466060 </i>
    <i name="e_wo_entrp">    -10.80466060 </i>
    <i name="e_0_energy">    -10.80466060 </i>
   </energy>
  </scstep>
  <scstep>
   <time name="diag">    0.20    0.20</time>
   <time name="diis">    0.16    0.16</time>
   <time name="orth">    0.10    0.10</time>
   <time name="total">    0.47    0.47</time>
   <energy>
    <i name="alphaZ">      3.49322047 </i>
    <i name="ewald">   -231.45824020 </i>
    <i name="hartreedc">    -14.46778333 </i>
    <i name="XCdc">    -17.78691178 </i>
    <i name="pawpsdc">     75.63210753 </i>
    <i name="pawaedc">    -40.70519436 </i>
    <i name="eentropy">     -0.00000000 </i>
    <i name="bandstr">      8.35688748 </i>
    <i name="atom">    206.13125414 </i>
    <i name="e_fr_energy">    -10.80466004 </i>
    <i name="e_wo_entrp">    -10.80466004 </i>
    <i name="e_0_energy">    -10.80466004 </i>
   </energy>
  </scstep>
  <structure>
   <crystal>
    <varray name="basis" >
     <v>       2.65425980       2.69468000       0.00000000 </v>
     <v>       0.00000000       2.69468000       2.69468000 </v>
     <v>       2.65425980       0.00000000       2.69468000 </v>
    </varray>
    <i name="volume">     38.54675498 </i>
    <varray name="rec_basis" >
     <v>       0.18837644       0.18555079      -0.18555079 </v>
     <v>      -0.18837644       0.18555079       0.18555079 </v>
     <v>       0.18837644      -0.18555079       0.18555079 </v>
    </varray>
   </crystal>
   <varray name="positions" >
    <v>       0.00000000       0.00000000       0.00000000 </v>
    <v>       0.25000000       0.25000000       0.25000000 </v>
   </varray>
  </structure>
  <varray name="forces" >
   <v>       0.00000000      -0.00000000      -0.00000000 </v>
   <v>      -0.00000000       0.00000000       0.00000000 </v>
  </varray>
  <varray name="stress" >
   <v>      68.38346366       0.00000000       0.00000000 </v>
   <v>      -0.00000000      54.13777625      -0.00000000 </v>
   <v>       0.00000000       0.00000000      54.13777625 </v>
  </varray>
  <energy>
   <i name="e_fr_energy">    -10.80466004 </i>
   <i name="e_wo_entrp">    -10.80466004 </i>
   <i name="e_0_energy">     -0.00000000 </i>
  </energy>
  <kpoints>
   <generation param="Gamma">
    <v type="int" name="divisions">      11       11       11 </v>
    <v name="usershift">      0.00000000       0.00000000       0.00000000 </v>
    <v name="genvec1">      0.09090909       0.00000000       0.00000000 </v>
    <v name="genvec2">      0.00000000       0.09090909      -0.00000000 </v>
    <v name="genvec3">     -0.00000000      -0.00000000       0.09090909 </v>
    <v name="shift">      0.00000000       0.00000000       0.00000000 </v>
   </generation>
   <varray name="kpointlist" >
    <v>       0.00000000       0.00000000       0.00000000 </v>
   </varray>
   <varray name="weights" >
    <v>       0.00075131 </v>
   </varray>
  </kpoints>
  <time name="totalsc">    3.43    3.44</time>
 </calculation>
 <calculation>
  <scstep>
   <time name="diag">    0.25    0.25</time>
   <time name="diis">    0.12    0.12</time>
   <time name="orth">    0.12    0.12</time>
   <time name="total">    0.52    0.52</time>
   <energy>
    <i name="alphaZ">      3.38997258 </i>
    <i name="ewald">   -229.15478007 </i>
    <i name="hartreedc">    -14.32386853 </i>
    <i name="XCdc">    -17.93527198 </i>
    <i name="pawpsdc">     75.62673937 </i>
    <i name="pawaedc">    -40.69970086 </i>
    <i name="eentropy">     -0.00000000 </i>
    <i name="bandstr">      6.12520259 </i>
    <i name="atom">    206.13125414 </i>
    <i name="e_fr_energy">    -10.84045276 </i>
    <i name="e_wo_entrp">    -10.84045276 </i>
    <i name="e_0_energy">    -10.84045276 </i>
   </energy>
  </scstep>
  <scstep>
   <time name="diag">    0.25    0.25</time>
   <time name="diis">    0.15    0.15</time>
   <time name="orth">    0.12    0.12</time>
   <time name="total">    0.54    0.54</time>
   <energy>
    <i name="e_fr_energy">    -10.83730489 </i>
    <i name="e_wo_entrp">    -10.83730489 </i>
    <i name="e_0_energy">    -10.83730489 </i>
   </energy>
  </scstep>
  <scstep>
   <time name="diag">    0.25    0.25</time>
   <time name="diis">    0.15    0.15</time>
   <time name="orth">    0.12    0.12</time>
   <time name="total">    0.54    0.54</time>
   <energy>
    <i name="e_fr_energy">    -10.83569629 </i>
    <i name="e_wo_entrp">    -10.83569629 </i>
    <i name="e_0_energy">    -10.83569629 </i>
   </energy>
  </scstep>
  <scstep>
   <time name="diag">    0.25    0.25</time>
   <time name="diis">    0.15    0.15</time>
   <time name="orth">    0.12    0.12</time>
   <time name="total">    0.55    0.55</time>
   <energy>
    <i name="e_fr_energy">    -10.83569232 </i>
    <i name="e_wo_entrp">    -10.83569232 </i>
    <i name="e_0_energy">    -10.83569232 </i>
   </energy>
  </scstep>
  <scstep>
   <time name="diag">    0.25    0.25</time>
   <time name="diis">    0.15    0.15</time>
   <time name="orth">    0.12    0.12</time>
   <time name="total">    0.55    0.55</time>
   <energy>
    <i name="e_fr_energy">    -10.83569375 </i>
    <i name="e_wo_entrp">    -10.83569375 </i>
    <i name="e_0_energy">    -10.83569375 </i>
   </energy>
  </scstep>
  <scstep>
   <time name="diag">    0.25    0.25</time>
   <time name="diis">    0.15    0.15</time>
   <time name="orth">    0.12    0.12</time>
   <time name="total">    0.52    0.52</time>
   <energy>
    <i name="alphaZ">      3.38997258 </i>
    <i name="ewald">   -229.15478007 </i>
    <i name="hartreedc">    -14.82134895 </i>
    <i name="XCdc">    -17.92612014 </i>
    <i name="pawpsdc">     74.60597995 </i>
    <i name="pawaedc">    -39.65099951 </i>
    <i name="eentropy">     -0.00000000 </i>
    <i name="bandstr">      6.59034778 </i>
    <i name="atom">    206.13125414 </i>
    <i name="e_fr_energy">    -10.83569422 </i>
    <i name="e_wo_entrp">    -10.83569422 </i>
    <i name="e_0_energy">    -10.83569422 </i>
   </energy>
  </scstep>
  <structure>
   <crystal>
    <varray name="basis" >
     <v>       2.69468000       2.73510020       0.00000000 </v>
     <v>       0.00000000       2.73510020       2.69468000 </v>
     <v>       2.69468000       0.00000000       2.69468000 </v>
    </varray>
    <i name="volume">     39.72076782 </i>
    <varray name="rec_basis" >
     <v>       0.18555079       0.18280866      -0.18555079 </v>
     <v>      -0.18555079       0.18280866       0.18555079 </v>
     <v>       0.18555079      -0.18280866       0.18555079 </v>
    </varray>
   </crystal>
   <varray name="positions" >
    <v>       0.00000000       0.00000000       0.00000000 </v>
    <v>       0.25000000       0.25000000       0.25000000 </v>
   </varray>
  </structure>
  <varray name="forces" >
   <v>      -0.00000000      -0.00000000      -0.00000000 </v>
   <v>       0.00000000       0.00000000       0.00000000 </v>
  </varray>
  <varray name="stress" >
   <v>      31.69970164      -0.00000000       0.00000000 </v>
   <v>      -0.00000000      16.85952654       0.00000000 </v>
   <v>       0.00000000       0.00000000      31.69970164 </v>
  </varray>
  <energy>
   <i name="e_fr_energy">    -10.83569422 </i>
   <i name="e_wo_entrp">    -10.83569422 </i>
   <i name="e_0_energy">     -0.00000000 </i>
  </energy>
  <kpoints>
   <generation param="Gamma">
    <v type="int" name="divisions">      11       11       11 </v>
    <v name="usershift">      0.00000000       0.00000000       0.00000000 </v>
    <v name="genvec1">      0.09090909       0.00000000       0.00000000 </v>
    <v name="genvec2">      0.00000000       0.09090909      -0.00000000 </v>
    <v name="genvec3">     -0.00000000      -0.00000000       0.09090909 </v>
    <v name="shift">      0.00000000       0.00000000       0.00000000 </v>
   </generation>
   <varray name="kpointlist" >
    <v>       0.00000000       0.00000000       0.00000000 </v>
   </varray>
   <varray name="weights" >
    <v>       0.00075131 </v>
   </varray>
  </kpoints>
  <time name="totalsc">    3.68    3.69</time>
 </calculation>
 <calculation>
  <scstep>
   <time name="diag">    0.30    0.30</time>
   <time name="diis">    0.27    0.27</time>
   <time name="orth">    0.18    0.18</time>
   <time name="total">    0.77    0.77</time>
   <energy>
    <i name="alphaZ">      3.49322047 </i>
    <i name="ewald">   -231.45824020 </i>
    <i name="hartreedc">    -14.96988259 </i>
    <i name="XCdc">    -17.77974348 </i>
    <i name="pawpsdc">     74.61095733 </i>
    <i name="pawaedc">    -39.65607969 </i>
    <i name="eentropy">     -0.00000000 </i>
    <i name="bandstr">      8.81932107 </i>
    <i name="atom">    206.13125414 </i>
    <i name="e_fr_energy">    -10.80919294 </i>
    <i name="e_wo_entrp">    -10.80919294 </i>
    <i name="e_0_energy">    -10.80919294 </i>
   </energy>
  </scstep>
  <scstep>
   <time name="diag">    0.30    0.30</time>
   <time name="diis">    0.19    0.19</time>
   <time name="orth">    0.18    0.18</time>
   <time name="total">    0.70    0.70</time>
   <energy>
    <i name="e_fr_energy">    -10.80616131 </i>
    <i name="e_wo_entrp">    -10.80616131 </i>
    <i name="e_0_energy">    -10.80616131 </i>
   </energy>
  </scstep>
  <scstep>
   <time name="diag">    0.30    0.30</time>
   <time name="diis">    0.19    0.19</time>
   <time name="orth">    0.18    0.18</time>
   <time name="total">    0.70    0.70</time>
   <energy>
    <i name="e_fr_energy">    -10.80465122 </i>
    <i name="e_wo_entrp">    -10.80465122 </i>
    <i name="e_0_energy">    -10.80465122 </i>
   </energy>
  </scstep>
  <scstep>
   <time name="diag">    0.30    0.30</time>
   <time name="diis">    0.19    0.19</time>
   <time name="orth">    0.18    0.18</time>
   <time name="total">    0.69    0.70</time>
   <energy>
    <i name="e_fr_energy">    -10.80465747 </i>
    <i name="e_wo_entrp">    -10.80465747 </i>
    <i name="e_0_energy">    -10.80465747 </i>
   </energy>
  </scstep>
  <scstep>
   <time name="diag">    0.30    0.30</time>
   <time name="diis">    0.19    0.19</time>
   <time name="orth">    0.18    0.18</time>
   <time name="total">    0.70    0.70</time>
   <energy>
    <i name="e_fr_energy">    -10.80466062 </i>
    <i name="e_wo_entrp">    -10.80466062 </i>
    <i name="e_0_energy">    -10.80466062 </i>
   </energy>
  </scstep>
  <scstep>
   <time name="diag">    0.30    0.30</time>
   <time name="diis">    0.14    0.14</time>
   <time name="orth">    0.18    0.18</time>
   <time name="total">    0.62    0.62</time>
   <energy>
    <i name="alphaZ">      3.49322047 </i>
    <i name="ewald">   -231.45824020 </i>
    <i name="hartreedc">    -14.46777994 </i>
    <i name="XCdc">    -17.78691354 </i>
    <i name="pawpsdc">     75.63202053 </i>
    <i name="pawaedc">    -40.70510474 </i>
    <i name="eentropy">     -0.00000000 </i>
    <i name="bandstr">      8.35688323 </i>
    <i name="atom">    206.13125414 </i>
    <i name="e_fr_energy">    -10.80466004 </i>
    <i name="e_wo_entrp">    -10.80466004 </i>
    <i name="e_0_energy">    -10.80466004 </i>
   </energy>
  </scstep>
  <structure>
   <crystal>
    <varray name="basis" >
     <v>       2.69468000       2.65425980       0.00000000 </v>
     <v>       0.00000000       2.65425980       2.69468000 </v>
     <v>       2.69468000       0.00000000       2.69468000 </v>
    </varray>
    <i name="volume">     38.54675498 </i>
    <varray name="rec_basis" >
     <v>       0.18555079       0.18837644      -0.18555079 </v>
     <v>      -0.18555079       0.18837644       0.18555079 </v>
     <v>       0.18555079      -0.18837644       0.18555079 </v>
    </varray>
   </crystal>
   <varray name="positions" >
    <v>       0.00000000       0.00000000       0.00000000 </v>
    <v>       0.25000000       0.25000000       0.25000000 </v>
   </varray>
  </structure>
  <varray name="forces" >
   <v>      -0.00000000      -0.00000000      -0.00000000 </v>
   <v>       0.00000000       0.00000000       0.00000000 </v>
  </varray>
  <varray name="stress" >
   <v>      54.13798327       0.00000000       0.00000000 </v>
   <v>      -0.00000000      68.38365277      -0.00000000 </v>
   <v>       0.00000000       0.00000000      54.13798327 </v>
  </varray>
  <energy>
   <i name="e_fr_energy">    -10.80466004 </i>
   <i name="e_wo_entrp">    -10.80466004 </i>
   <i name="e_0_energy">     -0.00000000 </i>
  </energy>
  <kpoints>
   <generation param="Gamma">
    <v type="int" name="divisions">      11       11       11 </v>
    <v name="usershift">      0.00000000       0.00000000       0.00000000 </v>
    <v name="genvec1">      0.09090909      -0.00000000      -0.00000000 </v>
    <v name="genvec2">      0.00000000       0.09090909       0.00000000 </v>
    <v name="genvec3">     -0.00000000       0.00000000       0.09090909 </v>
    <v name="shift">      0.00000000       0.00000000       0.00000000 </v>
   </generation>
   <varray name="kpointlist" >
    <v>       0.00000000       0.00000000       0.00000000 </v>
   </varray>
   <varray name="weights" >
    <v>       0.00075131 </v>
   </varray>
  </kpoints>
  <time name="totalsc">    4.58    4.59</time>
 </calculation>
 <calculation>
  <scstep>
   <time name="diag">    0.25    0.25</time>
   <time name="diis">    0.20    0.20</time>
   <time name="orth">    0.12    0.12</time>
   <time name="total">    0.59    0.59</time>
   <energy>
    <i name="alphaZ">      3.38997258 </i>
    <i name="ewald">   -229.15478007 </i>
    <i name="hartreedc">    -14.32386656 </i>
    <i name="XCdc">    -17.93527374 </i>
    <i name="pawpsdc">     75.62664689 </i>
    <i name="pawaedc">    -40.69960564 </i>
    <i name="eentropy">     -0.00000000 </i>
    <i name="bandstr">      6.12546203 </i>
    <i name="atom">    206.13125414 </i>
    <i name="e_fr_energy">    -10.84019036 </i>
    <i name="e_wo_entrp">    -10.84019036 </i>
    <i name="e_0_energy">    -10.84019036 </i>
   </energy>
  </scstep>
  <scstep>
   <time name="diag">    0.25    0.25</time>
   <time name="diis">    0.20    0.20</time>
   <time name="orth">    0.11    0.11</time>
   <time name="total">    0.59    0.59</time>
   <energy>
    <i name="e_fr_energy">    -10.83713273 </i>
    <i name="e_wo_entrp">    -10.83713273 </i>
    <i name="e_0_energy">    -10.83713273 </i>
   </energy>
  </scstep>
  <scstep>
   <time name="diag">    0.25    0.25</time>
   <time name="diis">    0.20    0.20</time>
   <time name="orth">    0.12    0.12</time>
   <time name="total">    0.59    0.59</time>
   <energy>
    <i name="e_fr_energy">    -10.83567304 </i>
    <i name="e_wo_entrp">    -10.83567304 </i>
    <i name="e_0_energy">    -10.83567304 </i>
   </energy>
  </scstep>
  <scstep>
   <time name="diag">    0.25    0.25</time>
   <time name="diis">    0.20    0.20</time>
   <time name="orth">    0.12    0.12</time>
   <time name="total">    0.59    0.59</time>
   <energy>
    <i name="e_fr_energy">    -10.83568293 </i>
    <i name="e_wo_entrp">    -10.83568293 </i>
    <i name="e_0_energy">    -10.83568293 </i>
   </energy>
  </scstep>
  <scstep>
   <time name="diag">    0.25    0.25</time>
   <time name="diis">    0.20    0.20</time>
   <time name="orth">    0.11    0.12</time>
   <time name="total">    0.59    0.59</time>
   <energy>
    <i name="e_fr_energy">    -10.83569429 </i>
    <i name="e_wo_entrp">    -10.83569429 </i>
    <i name="e_0_energy">    -10.83569429 </i>
   </energy>
  </scstep>
  <scstep>
   <time name="diag">    0.25    0.25</time>
   <time name="diis">    0.13    0.13</time>
   <time name="orth">    0.12    0.12</time>
   <time name="total">    0.51    0.51</time>
   <energy>
    <i name="alphaZ">      3.38997258 </i>
    <i name="ewald">   -229.15478007 </i>
    <i name="hartreedc">    -14.82132166 </i>
    <i name="XCdc">    -17.92612663 </i>
    <i name="pawpsdc">     74.60564812 </i>
    <i name="pawaedc">    -39.65065899 </i>
    <i name="eentropy">     -0.00000000 </i>
    <i name="bandstr">      6.59031788 </i>
    <i name="atom">    206.13125414 </i>
    <i name="e_fr_energy">    -10.83569462 </i>
    <i name="e_wo_entrp">    -10.83569462 </i>
    <i name="e_0_energy">    -10.83569462 </i>
   </energy>
  </scstep>
  <structure>
   <crystal>
    <varray name="basis" >
     <v>       2.69468000       2.69468000       0.00000000 </v>
     <v>       0.00000000       2.69468000       2.73510020 </v>
     <v>       2.69468000       0.00000000       2.73510020 </v>
    </varray>
    <i name="volume">     39.72076782 </i>
    <varray name="rec_basis" >
     <v>       0.18555079       0.18555079      -0.18280866 </v>
     <v>      -0.18555079       0.18555079       0.18280866 </v>
     <v>       0.18555079      -0.18555079       0.18280866 </v>
    </varray>
   </crystal>
   <varray name="positions" >
    <v>       0.00000000       0.00000000       0.00000000 </v>
    <v>       0.25000000       0.25000000       0.25000000 </v>
   </varray>
  </structure>
  <varray name="forces" >
   <v>      -0.00000000      -0.00000000       0.00000000 </v>
   <v>       0.00000000       0.00000000      -0.00000000 </v>
  </varray>
  <varray name="stress" >
   <v>      31.69988460       0.00000000       0.00000000 </v>
   <v>       0.00000000      31.69988460      -0.00000000 </v>
   <v>      -0.00000000       0.00000000      16.85976839 </v>
  </varray>
  <energy>
   <i name="e_fr_energy">    -10.83569462 </i>
   <i name="e_wo_entrp">    -10.83569462 </i>
   <i name="e_0_energy">     -0.00000000 </i>
  </energy>
  <kpoints>
   <generation param="Gamma">
    <v type="int" name="divisions">      11       11       11 </v>
    <v name="usershift">      0.00000000       0.00000000       0.00000000 </v>
    <v name="genvec1">      0.09090909       0.00000000       0.00000000 </v>
    <v name="genvec2">      0.00000000       0.09090909      -0.00000000 </v>
    <v name="genvec3">     -0.00000000      -0.00000000       0.09090909 </v>
    <v name="shift">      0.00000000       0.00000000       0.00000000 </v>
   </generation>
   <varray name="kpointlist" >
    <v>       0.00000000       0.00000000       0.00000000 </v>
   </varray>
   <varray name="weights" >
    <v>       0.00075131 </v>
   </varray>
  </kpoints>
  <time name="totalsc">    3.93    3.93</time>
 </calculation>
 <calculation>
  <scstep>
   <time name="diag">    0.30    0.30</time>
   <time name="diis">    0.14    0.15</time>
   <time name="orth">    0.18    0.18</time>
   <time name="total">    0.65    0.65</time>
   <energy>
    <i name="alphaZ">      3.49322047 </i>
    <i name="ewald">   -231.45824020 </i>
    <i name="hartreedc">    -14.96987981 </i>
    <i name="XCdc">    -17.77974307 </i>
    <i name="pawpsdc">     74.61099289 </i>
    <i name="pawaedc">    -39.65611676 </i>
    <i name="eentropy">     -0.00000000 </i>
    <i name="bandstr">      8.81932632 </i>
    <i name="atom">    206.13125414 </i>
    <i name="e_fr_energy">    -10.80918601 </i>
    <i name="e_wo_entrp">    -10.80918601 </i>
    <i name="e_0_energy">    -10.80918601 </i>
   </energy>
  </scstep>
  <scstep>
   <time name="diag">    0.30    0.30</time>
   <time name="diis">    0.14    0.14</time>
   <time name="orth">    0.18    0.18</time>
   <time name="total">    0.65    0.65</time>
   <energy>
    <i name="e_fr_energy">    -10.80615961 </i>
    <i name="e_wo_entrp">    -10.80615961 </i>
    <i name="e_0_energy">    -10.80615961 </i>
   </energy>
  </scstep>
  <scstep>
   <time name="diag">    0.30    0.30</time>
   <time name="diis">    0.14    0.14</time>
   <time name="orth">    0.18    0.18</time>
   <time name="total">    0.65    0.65</time>
   <energy>
    <i name="e_fr_energy">    -10.80465116 </i>
    <i name="e_wo_entrp">    -10.80465116 </i>
    <i name="e_0_energy">    -10.80465116 </i>
   </energy>
  </scstep>
  <scstep>
   <time name="diag">    0.30    0.30</time>
   <time name="diis">    0.14    0.14</time>
   <time name="orth">    0.18    0.18</time>
   <time name="total">    0.65    0.65</time>
   <energy>
    <i name="e_fr_energy">    -10.80465741 </i>
    <i name="e_wo_entrp">    -10.80465741 </i>
    <i name="e_0_energy">    -10.80465741 </i>
   </energy>
  </scstep>
  <scstep>
   <time name="diag">    0.30    0.30</time>
   <time name="diis">    0.14    0.14</time>
   <time name="orth">    0.18    0.18</time>
   <time name="total">    0.64    0.65</time>
   <energy>
    <i name="e_fr_energy">    -10.80466059 </i>
    <i name="e_wo_entrp">    -10.80466059 </i>
    <i name="e_0_energy">    -10.80466059 </i>
   </energy>
  </scstep>
  <scstep>
   <time name="diag">    0.30    0.30</time>
   <time name="diis">    0.13    0.13</time>
   <time name="orth">    0.18    0.18</time>
   <time name="total">    0.62    0.62</time>
   <energy>
    <i name="alphaZ">      3.49322047 </i>
    <i name="ewald">   -231.45824020 </i>
    <i name="hartreedc">    -14.46780435 </i>
    <i name="XCdc">    -17.78690843 </i>
    <i name="pawpsdc">     75.63223378 </i>
    <i name="pawaedc">    -40.70532459 </i>
    <i name="eentropy">     -0.00000000 </i>
    <i name="bandstr">      8.35690914 </i>
    <i name="atom">    206.13125414 </i>
    <i name="e_fr_energy">    -10.80466003 </i>
    <i name="e_wo_entrp">    -10.80466003 </i>
    <i name="e_0_energy">    -10.80466003 </i>
   </energy>
  </scstep>
  <structure>
   <crystal>
    <varray name="basis" >
     <v>       2.69468000       2.69468000       0.00000000 </v>
     <v>       0.00000000       2.69468000       2.65425980 </v>
     <v>       2.69468000       0.00000000       2.65425980 </v>
    </varray>
    <i name="volume">     38.54675498 </i>
    <varray name="rec_basis" >
     <v>       0.18555079       0.18555079      -0.18837644 </v>
     <v>      -0.18555079       0.18555079       0.18837644 </v>
     <v>       0.18555079      -0.18555079       0.18837644 </v>
    </varray>
   </crystal>
   <varray name="positions" >
    <v>       0.00000000       0.00000000       0.00000000 </v>
    <v>       0.25000000       0.25000000       0.25000000 </v>
   </varray>
  </structure>
  <varray name="forces" >
   <v>       0.00000000       0.00000000       0.00000000 </v>
   <v>      -0.00000000      -0.00000000      -0.00000000 </v>
  </varray>
  <varray name="stress" >
   <v>      54.13724642       0.00000000       0.00000000 </v>
   <v>       0.00000000      54.13724642       0.00000000 </v>
   <v>       0.00000000      -0.00000000      68.38290416 </v>
  </varray>
  <energy>
   <i name="e_fr_energy">    -10.80466003 </i>
   <i name="e_wo_entrp">    -10.80466003 </i>
   <i name="e_0_energy">     -0.00000000 </i>
  </energy>
  <kpoints>
   <generation param="Gamma">
    <v type="int" name="divisions">      11       11       11 </v>
    <v name="usershift">      0.00000000       0.00000000       0.00000000 </v>
    <v name="genvec1">      0.09090909       0.00000000       0.00000000 </v>
    <v name="genvec2">     -0.00000000       0.09090909      -0.00000000 </v>
    <v name="genvec3">      0.00000000      -0.00000000       0.09090909 </v>
    <v name="shift">      0.00000000       0.00000000       0.00000000 </v>
   </generation>
   <varray name="kpointlist" >
    <v>       0.00000000       0.00000000       0.00000000 </v>
   </varray>
   <varray name="weights" >
    <v>       0.00075131 </v>
   </varray>
  </kpoints>
  <time name="totalsc">    4.61    4.63</time>
 </calculation>
 <calculation>
  <scstep>
   <time name="diag">    0.58    0.58</time>
   <time name="diis">    0.49    0.50</time>
   <time name="orth">    0.34    0.34</time>
   <time name="total">    1.48    1.48</time>
   <energy>
    <i name="alphaZ">      3.44082216 </i>
    <i name="ewald">   -230.27735796 </i>
    <i name="hartreedc">    -14.39672173 </i>
    <i name="XCdc">    -17.86179433 </i>
    <i name="pawpsdc">     75.62668184 </i>
    <i name="pawaedc">    -40.69964174 </i>
    <i name="eentropy">     -0.00000000 </i>
    <i name="bandstr">      7.21006132 </i>
    <i name="atom">    206.13125414 </i>
    <i name="e_fr_energy">    -10.82669629 </i>
    <i name="e_wo_entrp">    -10.82669629 </i>
    <i name="e_0_energy">    -10.82669629 </i>
   </energy>
  </scstep>
  <scstep>
   <time name="diag">    0.58    0.58</time>
   <time name="diis">    0.48    0.48</time>
   <time name="orth">    0.34    0.34</time>
   <time name="total">    1.46    1.46</time>
   <energy>
    <i name="e_fr_energy">    -10.82311522 </i>
    <i name="e_wo_entrp">    -10.82311522 </i>
    <i name="e_0_energy">    -10.82311522 </i>
   </energy>
  </scstep>
  <scstep>
   <time name="diag">    0.58    0.58</time>
   <time name="diis">    0.48    0.48</time>
   <time name="orth">    0.33    0.33</time>
   <time name="total">    1.46    1.46</time>
   <energy>
    <i name="e_fr_energy">    -10.82182159 </i>
    <i name="e_wo_entrp">    -10.82182159 </i>
    <i name="e_0_energy">    -10.82182159 </i>
   </energy>
  </scstep>
  <scstep>
   <time name="diag">    0.59    0.59</time>
   <time name="diis">    0.48    0.48</time>
   <time name="orth">    0.36    0.36</time>
   <time name="total">    1.50    1.50</time>
   <energy>
    <i name="e_fr_energy">    -10.82180434 </i>
    <i name="e_wo_entrp">    -10.82180434 </i>
    <i name="e_0_energy">    -10.82180434 </i>
   </energy>
  </scstep>
  <scstep>
   <time name="diag">    0.58    0.58</time>
   <time name="diis">    0.48    0.48</time>
   <time name="orth">    0.36    0.36</time>
   <time name="total">    1.43    1.43</time>
   <energy>
    <i name="alphaZ">      3.44082216 </i>
    <i name="ewald">   -230.27735796 </i>
    <i name="hartreedc">    -14.65807491 </i>
    <i name="XCdc">    -17.85660208 </i>
    <i name="pawpsdc">     75.11514345 </i>
    <i name="pawaedc">    -40.17430526 </i>
    <i name="eentropy">     -0.00000000 </i>
    <i name="bandstr">      7.45731670 </i>
    <i name="atom">    206.13125414 </i>
    <i name="e_fr_energy">    -10.82180377 </i>
    <i name="e_wo_entrp">    -10.82180377 </i>
    <i name="e_0_energy">    -10.82180377 </i>
   </energy>
  </scstep>
  <structure>
   <crystal>
    <varray name="basis" >
     <v>       2.69468000       2.73510020       0.00000000 </v>
     <v>       0.00000000       2.69468000       2.69468000 </v>
     <v>       2.69468000       0.04042020       2.69468000 </v>
    </varray>
    <i name="volume">     39.13376140 </i>
    <varray name="rec_basis" >
     <v>       0.18276753       0.18555079      -0.18555079 </v>
     <v>      -0.18833405       0.18555079       0.18555079 </v>
     <v>       0.18833405      -0.18555079       0.18555079 </v>
    </varray>
   </crystal>
   <varray name="positions" >
    <v>       0.00000000       0.00000000       0.00000000 </v>
    <v>       0.25000000       0.25000000       0.25000000 </v>
   </varray>
  </structure>
  <varray name="forces" >
   <v>      -0.00000000       0.00000000       0.16471636 </v>
   <v>       0.00000000      -0.00000000      -0.16471636 </v>
  </varray>
  <varray name="stress" >
   <v>      42.70562254     -16.86908460       0.00000000 </v>
   <v>     -16.86908521      42.30883690       0.00000000 </v>
   <v>       0.00000000       0.00000000      42.44538118 </v>
  </varray>
  <energy>
   <i name="e_fr_energy">    -10.82180377 </i>
   <i name="e_wo_entrp">    -10.82180377 </i>
   <i name="e_0_energy">     -0.00000000 </i>
  </energy>
  <kpoints>
   <generation param="Gamma">
    <v type="int" name="divisions">      11       11       11 </v>
    <v name="usershift">      0.00000000       0.00000000       0.00000000 </v>
    <v name="genvec1">      0.09090909       0.00000000       0.00000000 </v>
    <v name="genvec2">     -0.00000000       0.09090909      -0.00000000 </v>
    <v name="genvec3">      0.00000000      -0.00000000       0.09090909 </v>
    <v name="shift">      0.00000000       0.00000000       0.00000000 </v>
   </generation>
   <varray name="kpointlist" >
    <v>       0.00000000       0.00000000       0.00000000 </v>
   </varray>
   <varray name="weights" >
    <v>       0.00075131 </v>
   </varray>
  </kpoints>
  <time name="totalsc">    8.36    8.37</time>
 </calculation>
 <calculation>
  <scstep>
   <time name="diag">    0.58    0.58</time>
   <time name="diis">    0.41    0.41</time>
   <time name="orth">    0.31    0.31</time>
   <time name="total">    1.37    1.37</time>
   <energy>
    <i name="alphaZ">      3.44082216 </i>
    <i name="ewald">   -230.27735796 </i>
    <i name="hartreedc">    -14.64927236 </i>
    <i name="XCdc">    -17.85702877 </i>
    <i name="pawpsdc">     75.11513358 </i>
    <i name="pawaedc">    -40.17408838 </i>
    <i name="eentropy">     -0.00000000 </i>
    <i name="bandstr">      7.43415614 </i>
    <i name="atom">    206.13125414 </i>
    <i name="e_fr_energy">    -10.83638144 </i>
    <i name="e_wo_entrp">    -10.83638144 </i>
    <i name="e_0_energy">    -10.83638144 </i>
   </energy>
  </scstep>
  <scstep>
   <time name="diag">    0.58    0.58</time>
   <time name="diis">    0.49    0.49</time>
   <time name="orth">    0.31    0.31</time>
   <time name="total">    1.44    1.44</time>
   <energy>
    <i name="e_fr_energy">    -10.82534303 </i>
    <i name="e_wo_entrp">    -10.82534303 </i>
    <i name="e_0_energy">    -10.82534303 </i>
   </energy>
  </scstep>
  <scstep>
   <time name="diag">    0.58    0.58</time>
   <time name="diis">    0.49    0.49</time>
   <time name="orth">    0.31    0.31</time>
   <time name="total">    1.44    1.44</time>
   <energy>
    <i name="e_fr_energy">    -10.82182411 </i>
    <i name="e_wo_entrp">    -10.82182411 </i>
    <i name="e_0_energy">    -10.82182411 </i>
   </energy>
  </scstep>
  <scstep>
   <time name="diag">    0.58    0.58</time>
   <time name="diis">    0.49    0.49</time>
   <time name="orth">    0.31    0.31</time>
   <time name="total">    1.44    1.44</time>
   <energy>
    <i name="e_fr_energy">    -10.82180594 </i>
    <i name="e_wo_entrp">    -10.82180594 </i>
    <i name="e_0_energy">    -10.82180594 </i>
   </energy>
  </scstep>
  <scstep>
   <time name="diag">    0.58    0.58</time>
   <time name="diis">    0.49    0.49</time>
   <time name="orth">    0.31    0.31</time>
   <time name="total">    1.44    1.44</time>
   <energy>
    <i name="e_fr_energy">    -10.82180322 </i>
    <i name="e_wo_entrp">    -10.82180322 </i>
    <i name="e_0_energy">    -10.82180322 </i>
   </energy>
  </scstep>
  <scstep>
   <time name="diag">    0.58    0.58</time>
   <time name="diis">    0.42    0.42</time>
   <time name="orth">    0.31    0.31</time>
   <time name="total">    1.32    1.32</time>
   <energy>
    <i name="alphaZ">      3.44082216 </i>
    <i name="ewald">   -230.27735796 </i>
    <i name="hartreedc">    -14.65770644 </i>
    <i name="XCdc">    -17.85660668 </i>
    <i name="pawpsdc">     75.11724134 </i>
    <i name="pawaedc">    -40.17627046 </i>
    <i name="eentropy">     -0.00000000 </i>
    <i name="bandstr">      7.45681988 </i>
    <i name="atom">    206.13125414 </i>
    <i name="e_fr_energy">    -10.82180402 </i>
    <i name="e_wo_entrp">    -10.82180402 </i>
    <i name="e_0_energy">    -10.82180402 </i>
   </energy>
  </scstep>
  <structure>
   <crystal>
    <varray name="basis" >
     <v>       2.69468000       2.65425980       0.00000000 </v>
     <v>       0.00000000       2.69468000       2.69468000 </v>
     <v>       2.69468000      -0.04042020       2.69468000 </v>
    </varray>
    <i name="volume">     39.13376140 </i>
    <varray name="rec_basis" >
     <v>       0.18833405       0.18555079      -0.18555079 </v>
     <v>      -0.18276753       0.18555079       0.18555079 </v>
     <v>       0.18276753      -0.18555079       0.18555079 </v>
    </varray>
   </crystal>
   <varray name="positions" >
    <v>       0.00000000       0.00000000       0.00000000 </v>
    <v>       0.25000000       0.25000000       0.25000000 </v>
   </varray>
  </structure>
  <varray name="forces" >
   <v>       0.00000000       0.00000000      -0.16469537 </v>
   <v>      -0.00000000      -0.00000000       0.16469537 </v>
  </varray>
  <varray name="stress" >
   <v>      42.73030014      16.80862702       0.00000000 </v>
   <v>      16.80862667      42.33523367      -0.00000000 </v>
   <v>       0.00000000      -0.00000000      42.48407591 </v>
  </varray>
  <energy>
   <i name="e_fr_energy">    -10.82180402 </i>
   <i name="e_wo_entrp">    -10.82180402 </i>
   <i name="e_0_energy">     -0.00000000 </i>
  </energy>
  <kpoints>
   <generation param="Gamma">
    <v type="int" name="divisions">      11       11       11 </v>
    <v name="usershift">      0.00000000       0.00000000       0.00000000 </v>
    <v name="genvec1">      0.09090909       0.00000000       0.00000000 </v>
    <v name="genvec2">      0.00000000       0.09090909      -0.00000000 </v>
    <v name="genvec3">     -0.00000000      -0.00000000       0.09090909 </v>
    <v name="shift">      0.00000000       0.00000000       0.00000000 </v>
   </generation>
   <varray name="kpointlist" >
    <v>       0.00000000       0.00000000       0.00000000 </v>
   </varray>
   <varray name="weights" >
    <v>       0.00075131 </v>
   </varray>
  </kpoints>
  <time name="totalsc">    9.49    9.50</time>
 </calculation>
 <calculation>
  <scstep>
   <time name="diag">    0.59    0.59</time>
   <time name="diis">    0.59    0.59</time>
   <time name="orth">    0.31    0.31</time>
   <time name="total">    1.55    1.56</time>
   <energy>
    <i name="alphaZ">      3.44082216 </i>
    <i name="ewald">   -230.27735796 </i>
    <i name="hartreedc">    -14.65366793 </i>
    <i name="XCdc">    -17.85678264 </i>
    <i name="pawpsdc">     75.11719646 </i>
    <i name="pawaedc">    -40.17622402 </i>
    <i name="eentropy">     -0.00000000 </i>
    <i name="bandstr">      7.44565176 </i>
    <i name="atom">    206.13125414 </i>
    <i name="e_fr_energy">    -10.82910803 </i>
    <i name="e_wo_entrp">    -10.82910803 </i>
    <i name="e_0_energy">    -10.82910803 </i>
   </energy>
  </scstep>
  <scstep>
   <time name="diag">    0.59    0.59</time>
   <time name="diis">    0.58    0.58</time>
   <time name="orth">    0.31    0.31</time>
   <time name="total">    1.54    1.54</time>
   <energy>
    <i name="e_fr_energy">    -10.82452431 </i>
    <i name="e_wo_entrp">    -10.82452431 </i>
    <i name="e_0_energy">    -10.82452431 </i>
   </energy>
  </scstep>
  <scstep>
   <time name="diag">    0.58    0.58</time>
   <time name="diis">    0.58    0.58</time>
   <time name="orth">    0.31    0.31</time>
   <time name="total">    1.54    1.54</time>
   <energy>
    <i name="e_fr_energy">    -10.82200106 </i>
    <i name="e_wo_entrp">    -10.82200106 </i>
    <i name="e_0_energy">    -10.82200106 </i>
   </energy>
  </scstep>
  <scstep>
   <time name="diag">    0.58    0.58</time>
   <time name="diis">    0.58    0.58</time>
   <time name="orth">    0.31    0.31</time>
   <time name="total">    1.54    1.54</time>
   <energy>
    <i name="e_fr_energy">    -10.82180881 </i>
    <i name="e_wo_entrp">    -10.82180881 </i>
    <i name="e_0_energy">    -10.82180881 </i>
   </energy>
  </scstep>
  <scstep>
   <time name="diag">    0.59    0.59</time>
   <time name="diis">    0.58    0.58</time>
   <time name="orth">    0.31    0.31</time>
   <time name="total">    1.54    1.54</time>
   <energy>
    <i name="e_fr_energy">    -10.82180696 </i>
    <i name="e_wo_entrp">    -10.82180696 </i>
    <i name="e_0_energy">    -10.82180696 </i>
   </energy>
  </scstep>
  <scstep>
   <time name="diag">    0.58    0.58</time>
   <time name="diis">    0.44    0.44</time>
   <time name="orth">    0.31    0.31</time>
   <time name="total">    1.39    1.39</time>
   <energy>
    <i name="e_fr_energy">    -10.82180400 </i>
    <i name="e_wo_entrp">    -10.82180400 </i>
    <i name="e_0_energy">    -10.82180400 </i>
   </energy>
  </scstep>
  <scstep>
   <time name="diag">    0.58    0.59</time>
   <time name="diis">    0.51    0.51</time>
   <time name="orth">    0.31    0.31</time>
   <time name="total">    1.41    1.41</time>
   <energy>
    <i name="alphaZ">      3.44082216 </i>
    <i name="ewald">   -230.27735796 </i>
    <i name="hartreedc">    -14.65768972 </i>
    <i name="XCdc">    -17.85660950 </i>
    <i name="pawpsdc">     75.11718963 </i>
    <i name="pawaedc">    -40.17621677 </i>
    <i name="eentropy">     -0.00000000 </i>
    <i name="bandstr">      7.45680397 </i>
    <i name="atom">    206.13125414 </i>
    <i name="e_fr_energy">    -10.82180404 </i>
    <i name="e_wo_entrp">    -10.82180404 </i>
    <i name="e_0_energy">    -10.82180404 </i>
   </energy>
  </scstep>
  <structure>
   <crystal>
    <varray name="basis" >
     <v>       2.69468000       2.69468000       0.04042020 </v>
     <v>       0.00000000       2.69468000       2.73510020 </v>
     <v>       2.69468000       0.00000000       2.69468000 </v>
    </varray>
    <i name="volume">     39.13376140 </i>
    <varray name="rec_basis" >
     <v>       0.18555079       0.18833405      -0.18555079 </v>
     <v>      -0.18555079       0.18276753       0.18555079 </v>
     <v>       0.18555079      -0.18833405       0.18555079 </v>
[...]
    </varray>
   </crystal>
   <varray name="positions" >
    <v>       0.00000000       0.00000000       0.00000000 </v>
    <v>       0.25000000       0.25000000       0.25000000 </v>
   </varray>
  </structure>
  <varray name="forces" >
   <v>       0.00000000      -0.16469809       0.00000000 </v>
   <v>      -0.00000000       0.16469809      -0.00000000 </v>
  </varray>
  <varray name="stress" >
   <v>      42.33503932      -0.00000000      16.81444308 </v>
   <v>      -0.00000000      42.48400696       0.00000000 </v>
   <v>      16.81444357       0.00000000      42.73028383 </v>
  </varray>
  <energy>
   <i name="e_fr_energy">    -10.82180399 </i>
   <i name="e_wo_entrp">    -10.82180399 </i>
   <i name="e_0_energy">     -0.00000000 </i>
  </energy>
  <kpoints>
   <generation param="Gamma">
    <v type="int" name="divisions">      11       11       11 </v>
    <v name="usershift">      0.00000000       0.00000000       0.00000000 </v>
    <v name="genvec1">      0.09090909       0.00000000       0.00000000 </v>
    <v name="genvec2">      0.00000000       0.09090909      -0.00000000 </v>
    <v name="genvec3">     -0.00000000      -0.00000000       0.09090909 </v>
    <v name="shift">      0.00000000       0.00000000       0.00000000 </v>
   </generation>
   <varray name="kpointlist" >
    <v>       0.00000000       0.00000000       0.00000000 </v>
   </varray>
   <varray name="weights" >
    <v>       0.00075131 </v>
   </varray>
  </kpoints>
  <time name="totalsc">    9.31    9.32</time>
 </calculation>
 <calculation>
  <scstep>
   <time name="diag">    0.34    0.34</time>
   <time name="diis">    0.25    0.25</time>
   <time name="orth">    0.18    0.18</time>
   <time name="total">    0.82    0.82</time>
   <energy>
    <i name="alphaZ">      3.44082216 </i>
    <i name="ewald">   -230.28429899 </i>
    <i name="hartreedc">    -14.65356661 </i>
    <i name="XCdc">    -17.85674816 </i>
    <i name="pawpsdc">     75.11719001 </i>
    <i name="pawaedc">    -40.17621746 </i>
    <i name="eentropy">     -0.00000000 </i>
    <i name="bandstr">      7.45476741 </i>
    <i name="atom">    206.13125414 </i>
    <i name="e_fr_energy">    -10.82679750 </i>
    <i name="e_wo_entrp">    -10.82679750 </i>
    <i name="e_0_energy">    -10.82679750 </i>
   </energy>
  </scstep>
  <scstep>
   <time name="diag">    0.34    0.34</time>
   <time name="diis">    0.26    0.26</time>
   <time name="orth">    0.18    0.18</time>
   <time name="total">    0.82    0.82</time>
   <energy>
    <i name="e_fr_energy">    -10.82481463 </i>
    <i name="e_wo_entrp">    -10.82481463 </i>
    <i name="e_0_energy">    -10.82481463 </i>
   </energy>
  </scstep>
  <scstep>
   <time name="diag">    0.34    0.34</time>
   <time name="diis">    0.26    0.26</time>
   <time name="orth">    0.18    0.18</time>
   <time name="total">    0.82    0.82</time>
   <energy>
    <i name="e_fr_energy">    -10.82321434 </i>
    <i name="e_wo_entrp">    -10.82321434 </i>
    <i name="e_0_energy">    -10.82321434 </i>
   </energy>
  </scstep>
  <scstep>
   <time name="diag">    0.34    0.34</time>
   <time name="diis">    0.26    0.26</time>
   <time name="orth">    0.18    0.18</time>
   <time name="total">    0.82    0.82</time>
   <energy>
    <i name="e_fr_energy">    -10.82327977 </i>
    <i name="e_wo_entrp">    -10.82327977 </i>
    <i name="e_0_energy">    -10.82327977 </i>
   </energy>
  </scstep>
  <scstep>
   <time name="diag">    0.34    0.34</time>
   <time name="diis">    0.25    0.25</time>
   <time name="orth">    0.18    0.18</time>
   <time name="total">    0.81    0.81</time>
   <energy>
    <i name="e_fr_energy">    -10.82329269 </i>
    <i name="e_wo_entrp">    -10.82329269 </i>
    <i name="e_0_energy">    -10.82329269 </i>
   </energy>
  </scstep>
  <scstep>
   <time name="diag">    0.34    0.34</time>
   <time name="diis">    0.21    0.21</time>
   <time name="orth">    0.18    0.18</time>
   <time name="total">    0.77    0.77</time>
   <energy>
    <i name="e_fr_energy">    -10.82329591 </i>
    <i name="e_wo_entrp">    -10.82329591 </i>
    <i name="e_0_energy">    -10.82329591 </i>
   </energy>
  </scstep>
  <scstep>
   <time name="diag">    0.34    0.34</time>
   <time name="diis">    0.20    0.20</time>
   <time name="orth">    0.18    0.18</time>
   <time name="total">    0.73    0.73</time>
   <energy>
    <i name="alphaZ">      3.44082216 </i>
    <i name="ewald">   -230.28429899 </i>
    <i name="hartreedc">    -14.65123905 </i>
    <i name="XCdc">    -17.85677894 </i>
    <i name="pawpsdc">     75.11382683 </i>
    <i name="pawaedc">    -40.17276714 </i>
    <i name="eentropy">     -0.00000000 </i>
    <i name="bandstr">      7.45588497 </i>
    <i name="atom">    206.13125414 </i>
    <i name="e_fr_energy">    -10.82329601 </i>
    <i name="e_wo_entrp">    -10.82329601 </i>
    <i name="e_0_energy">    -10.82329601 </i>
   </energy>
  </scstep>
  <structure>
   <crystal>
    <varray name="basis" >
     <v>       2.69468000       2.69468000       0.00000000 </v>
     <v>       0.00000000       2.69468000       2.69468000 </v>
     <v>       2.69468000       0.00000000       2.69468000 </v>
    </varray>
    <i name="volume">     39.13376140 </i>
    <varray name="rec_basis" >
     <v>       0.18555079       0.18555079      -0.18555079 </v>
     <v>      -0.18555079       0.18555079       0.18555079 </v>
     <v>       0.18555079      -0.18555079       0.18555079 </v>
    </varray>
   </crystal>
   <varray name="positions" >
    <v>       0.00278326      -0.00278326       0.00278326 </v>
    <v>       0.25000000       0.25000000       0.25000000 </v>
   </varray>
  </structure>
  <varray name="forces" >
   <v>      -0.21318769       0.00000000      -0.00000000 </v>
   <v>       0.21318769      -0.00000000       0.00000000 </v>
  </varray>
  <varray name="stress" >
   <v>      42.26975776       0.00000000       0.00000000 </v>
   <v>       0.00000000      42.43721933       6.74410219 </v>
   <v>      -0.00000000       6.74410219      42.43721933 </v>
  </varray>
  <energy>
   <i name="e_fr_energy">    -10.82329601 </i>
   <i name="e_wo_entrp">    -10.82329601 </i>
   <i name="e_0_energy">     -0.00000000 </i>
  </energy>
  <kpoints>
   <generation param="Gamma">
    <v type="int" name="divisions">      11       11       11 </v>
    <v name="usershift">      0.00000000       0.00000000       0.00000000 </v>
    <v name="genvec1">      0.09090909       0.00000000       0.00000000 </v>
    <v name="genvec2">      0.00000000       0.09090909      -0.00000000 </v>
    <v name="genvec3">     -0.00000000      -0.00000000       0.09090909 </v>
    <v name="shift">      0.00000000       0.00000000       0.00000000 </v>
   </generation>
   <varray name="kpointlist" >
    <v>       0.00000000       0.00000000       0.00000000 </v>
   </varray>
   <varray name="weights" >
    <v>       0.00075131 </v>
   </varray>
  </kpoints>
  <time name="totalsc">    6.22    6.23</time>
 </calculation>
 <calculation>
  <scstep>
   <time name="diag">    0.35    0.35</time>
   <time name="diis">    0.33    0.33</time>
   <time name="orth">    0.18    0.18</time>
   <time name="total">    0.91    0.91</time>
   <energy>
    <i name="alphaZ">      3.44082216 </i>
    <i name="ewald">   -230.28429899 </i>
    <i name="hartreedc">    -14.65042207 </i>
    <i name="XCdc">    -17.85695282 </i>
    <i name="pawpsdc">     75.11387844 </i>
    <i name="pawaedc">    -40.17282080 </i>
    <i name="eentropy">     -0.00000000 </i>
    <i name="bandstr">      7.45516123 </i>
    <i name="atom">    206.13125414 </i>
    <i name="e_fr_energy">    -10.82337871 </i>
    <i name="e_wo_entrp">    -10.82337871 </i>
    <i name="e_0_energy">    -10.82337871 </i>
   </energy>
  </scstep>
  <scstep>
   <time name="diag">    0.34    0.34</time>
   <time name="diis">    0.33    0.33</time>
   <time name="orth">    0.18    0.18</time>
   <time name="total">    0.90    0.90</time>
   <energy>
    <i name="e_fr_energy">    -10.82333709 </i>
    <i name="e_wo_entrp">    -10.82333709 </i>
    <i name="e_0_energy">    -10.82333709 </i>
   </energy>
  </scstep>
  <scstep>
   <time name="diag">    0.34    0.34</time>
   <time name="diis">    0.33    0.33</time>
   <time name="orth">    0.18    0.18</time>
   <time name="total">    0.90    0.90</time>
   <energy>
    <i name="e_fr_energy">    -10.82329778 </i>
    <i name="e_wo_entrp">    -10.82329778 </i>
    <i name="e_0_energy">    -10.82329778 </i>
   </energy>
  </scstep>
  <scstep>
   <time name="diag">    0.34    0.34</time>
   <time name="diis">    0.33    0.33</time>
   <time name="orth">    0.18    0.18</time>
   <time name="total">    0.89    0.89</time>
   <energy>
    <i name="e_fr_energy">    -10.82329603 </i>
    <i name="e_wo_entrp">    -10.82329603 </i>
    <i name="e_0_energy">    -10.82329603 </i>
   </energy>
  </scstep>
  <scstep>
   <time name="diag">    0.34    0.34</time>
   <time name="diis">    0.33    0.33</time>
   <time name="orth">    0.18    0.18</time>
   <time name="total">    0.86    0.86</time>
   <energy>
    <i name="alphaZ">      3.44082216 </i>
    <i name="ewald">   -230.28429899 </i>
    <i name="hartreedc">    -14.65120016 </i>
    <i name="XCdc">    -17.85678290 </i>
    <i name="pawpsdc">     75.11388678 </i>
    <i name="pawaedc">    -40.17282972 </i>
    <i name="eentropy">     -0.00000000 </i>
    <i name="bandstr">      7.45585268 </i>
    <i name="atom">    206.13125414 </i>
    <i name="e_fr_energy">    -10.82329600 </i>
    <i name="e_wo_entrp">    -10.82329600 </i>
    <i name="e_0_energy">    -10.82329600 </i>
   </energy>
  </scstep>
  <structure>
   <crystal>
    <varray name="basis" >
     <v>       2.69468000       2.69468000       0.00000000 </v>
     <v>       0.00000000       2.69468000       2.69468000 </v>
     <v>       2.69468000       0.00000000       2.69468000 </v>
    </varray>
    <i name="volume">     39.13376140 </i>
    <varray name="rec_basis" >
     <v>       0.18555079       0.18555079      -0.18555079 </v>
     <v>      -0.18555079       0.18555079       0.18555079 </v>
     <v>       0.18555079      -0.18555079       0.18555079 </v>
    </varray>
   </crystal>
   <varray name="positions" >
    <v>      -0.00278326       0.00278326      -0.00278326 </v>
    <v>       0.25000000       0.25000000       0.25000000 </v>
   </varray>
  </structure>
  <varray name="forces" >
   <v>       0.21326679      -0.00000000       0.00000000 </v>
   <v>      -0.21326679       0.00000000      -0.00000000 </v>
  </varray>
  <varray name="stress" >
   <v>      42.27041999       0.00000000       0.00000000 </v>
   <v>       0.00000000      42.43766559      -6.73470561 </v>
   <v>      -0.00000000      -6.73470561      42.43766559 </v>
  </varray>
  <energy>
   <i name="e_fr_energy">    -10.82329600 </i>
   <i name="e_wo_entrp">    -10.82329600 </i>
   <i name="e_0_energy">     -0.00000000 </i>
  </energy>
  <dynmat>
   <varray name="hessian" >
    <v>      -0.50614739       0.00000000      -0.00000000       0.50614739      -0.00000000       0.00000000 </v>
    <v>       0.00000000      -0.50614739       0.00000000      -0.00000000       0.50614739      -0.00000000 </v>
    <v>      -0.00000000       0.00000000      -0.50614739       0.00000000      -0.00000000       0.50614739 </v>
    <v>       0.50614739      -0.00000000       0.00000000      -0.50614739       0.00000000      -0.00000000 </v>
    <v>      -0.00000000       0.50614739      -0.00000000       0.00000000      -0.50614739       0.00000000 </v>
    <v>       0.00000000      -0.00000000       0.50614739      -0.00000000       0.00000000      -0.50614739 </v>
   </varray>
   <v name="eigenvalues"> -1.01229478E+00 -1.01229478E+00 -1.01229478E+00 -1.51980404E-16 -1.00558146E-17  0.00000000E+00</v>
   <varray name="eigenvectors" >
    <v>  -3.11033334E-17  1.14962263E-34 -7.07106781E-01  3.11033334E-17  0.00000000E+00  7.07106781E-01</v>
    <v>   7.07106781E-01 -6.53391351E-19 -6.22066668E-17 -7.07106781E-01  6.53391351E-19  0.00000000E+00</v>
    <v>  -1.38999261E-17  7.07106781E-01 -2.73626947E-33 -2.90157119E-17 -7.07106781E-01  0.00000000E+00</v>
    <v>  -5.12059997E-01 -4.87641835E-01 -1.17284882E-32 -5.12059997E-01 -4.87641835E-01  0.00000000E+00</v>
    <v>   4.87641835E-01 -5.12059997E-01  7.47004676E-33  4.87641835E-01 -5.12059997E-01  0.00000000E+00</v>
    <v>   3.11033334E-17 -1.14962263E-34  7.07106781E-01 -3.11033334E-17  0.00000000E+00  7.07106781E-01</v>
   </varray>
   <array name="force_constants" >
    <dimension dim="1">cart_super</dimension>
    <dimension dim="2">ion_super</dimension>
    <dimension dim="3">ion_primitive</dimension>
    <field>f_cart_prim_1</field>
    <field>f_cart_prim_2</field>
    <field>f_cart_prim_3</field>
    <set>
     <set comment="ionprim 1">
      <set comment="ion 1">
       <r>     -14.21514939      0.00000000     -0.00000000</r>
       <r>       0.00000000    -14.21514939      0.00000000</r>
       <r>      -0.00000000      0.00000000    -14.21514939</r>
      </set>
      <set comment="ion 2">
       <r>      14.21514939     -0.00000000      0.00000000</r>
       <r>      -0.00000000     14.21514939     -0.00000000</r>
       <r>       0.00000000     -0.00000000     14.21514939</r>
      </set>
     </set>
     <set comment="ionprim 2">
      <set comment="ion 1">
       <r>      14.21514939     -0.00000000      0.00000000</r>
       <r>      -0.00000000     14.21514939     -0.00000000</r>
       <r>       0.00000000     -0.00000000     14.21514939</r>
      </set>
      <set comment="ion 2">
       <r>     -14.21514939      0.00000000     -0.00000000</r>
       <r>       0.00000000    -14.21514939      0.00000000</r>
       <r>      -0.00000000      0.00000000    -14.21514939</r>
      </set>
     </set>
    </set>
   </array>
  </dynmat>
  <varray name="epsilon_ion" >
   <v>       0.00000000      -0.00000000       0.00000000 </v>
   <v>      -0.00000000       0.00000000      -0.00000000 </v>
   <v>       0.00000000      -0.00000000       0.00000000 </v>
  </varray>
  <dielectricfunction>
   <imag>
    <array>
     <dimension dim="1">gridpoints</dimension>
     <field>energy</field>
     <field>xx</field>
     <field>yy</field>
     <field>zz</field>
     <field>xy</field>
     <field>yz</field>
     <field>zx</field>
     <set>
      <r>     0.0000     0.0000     0.0000     0.0000     0.0000     0.0000     0.0000 </r>
      <r>     0.0593     0.0000     0.0000     0.0000    -0.0000    -0.0000     0.0000 </r>
      <r>     0.1187     0.0000     0.0000     0.0000    -0.0000    -0.0000     0.0000 </r>
      <r>     0.1780     0.0000     0.0000     0.0000    -0.0000    -0.0000     0.0000 </r>
      <r>     0.2373     0.0000     0.0000     0.0000    -0.0000    -0.0000     0.0000 </r>
      <r>     0.2966     0.0000     0.0000     0.0000    -0.0000    -0.0000     0.0000 </r>
      <r>     0.3560     0.0000     0.0000     0.0000    -0.0000    -0.0000     0.0000 </r>
      <r>     0.4153     0.0000     0.0000     0.0000    -0.0000    -0.0000     0.0000 </r>
      <r>     0.4746     0.0000     0.0000     0.0000    -0.0000    -0.0000     0.0000 </r>
      <r>     0.5339     0.0000     0.0000     0.0000    -0.0000    -0.0000     0.0000 </r>
     </set>
    </array>
   </imag>
   <real>
    <array>
     <dimension dim="1">gridpoints</dimension>
     <field>energy</field>
     <field>xx</field>
     <field>yy</field>
     <field>zz</field>
     <field>xy</field>
     <field>yz</field>
     <field>zx</field>
     <set>
      <r>     0.0000     0.0000     0.0000     0.0000    -0.0000    -0.0000     0.0000 </r>
      <r>     0.0593     0.0000     0.0000     0.0000    -0.0000    -0.0000     0.0000 </r>
      <r>     0.1187     0.0000     0.0000     0.0000    -0.0000    -0.0000     0.0000 </r>
      <r>     0.1780     0.0000     0.0000     0.0000    -0.0000    -0.0000     0.0000 </r>
      <r>     0.2373     0.0000     0.0000     0.0000    -0.0000    -0.0000     0.0000 </r>
      <r>     0.2966     0.0000     0.0000     0.0000    -0.0000    -0.0000     0.0000 </r>
      <r>     0.3560     0.0000     0.0000     0.0000    -0.0000    -0.0000     0.0000 </r>
      <r>     0.4153     0.0000     0.0000     0.0000    -0.0000    -0.0000     0.0000 </r>
      <r>     0.4746     0.0000     0.0000     0.0000    -0.0000    -0.0000     0.0000 </r>
      <r>     0.5339     0.0000     0.0000     0.0000    -0.0000    -0.0000     0.0000 </r>
     </set>
    </array>
   </real>
  </dielectricfunction>
  <kpoints>
   <generation param="Gamma">
    <v type="int" name="divisions">      11       11       11 </v>
    <v name="usershift">      0.00000000       0.00000000       0.00000000 </v>
    <v name="genvec1">      0.09090909       0.00000000       0.00000000 </v>
    <v name="genvec2">      0.00000000       0.09090909      -0.00000000 </v>
    <v name="genvec3">     -0.00000000      -0.00000000       0.09090909 </v>
    <v name="shift">      0.00000000       0.00000000       0.00000000 </v>
   </generation>
   <varray name="kpointlist" >
    <v>       0.00000000       0.00000000       0.00000000 </v>
   </varray>
   <varray name="weights" >
    <v>       0.00075131 </v>
   </varray>
  </kpoints>
  <time name="totalsc">    4.87    4.92</time>
  <eigenvalues>
   <array>
    <dimension dim="1">band</dimension>
    <dimension dim="2">kpoint</dimension>
    <dimension dim="3">spin</dimension>
    <field>eigene</field>
    <field>occ</field>
    <set>
     <set comment="spin 1">
      <set comment="kpoint 1">
       <r>   -6.0567    1.0000 </r>
       <r>    5.9879    1.0000 </r>
       <r>    6.0617    1.0000 </r>
       <r>    6.1345    1.0000 </r>
       <r>    8.5946    0.0000 </r>
       <r>    8.6366    0.0000 </r>
       <r>    8.6801    0.0000 </r>
       <r>    9.7005    0.0000 </r>
       <r>   13.8037    0.0000 </r>
       <r>   13.8052    0.0000 </r>
       <r>   14.1119    0.0000 </r>
       <r>   17.3444    0.0000 </r>
       <r>   17.3942    0.0000 </r>
       <r>   17.4438    0.0000 </r>
       <r>   21.6157    0.0000 </r>
       <r>   29.4619    0.0000 </r>
      </set>
     </set>
    </set>
   </array>
  </eigenvalues>
  <separator name="orbital magnetization" >
   <v name="MAGDIPOLOUT">      0.00000000      0.00000000      0.00000000</v>
  </separator>
  <dos>
   <i name="efermi">      6.17267267 </i>
   <total>
    <array>
     <dimension dim="1">gridpoints</dimension>
     <dimension dim="2">spin</dimension>
     <field>energy</field>
     <field>total</field>
     <field>integrated</field>
     <set>
      <set comment="spin 1">
       <r>     5.5000  3933.7686     7.8754 </r>
       <r>     5.5020     0.0676     7.8755 </r>
       <r>     5.5040     0.1191     7.8758 </r>
       <r>     5.5060     0.1936     7.8762 </r>
       <r>     5.5080     0.2907     7.8768 </r>
       <r>     5.5100     0.4031     7.8776 </r>
       <r>     5.5120     0.5161     7.8786 </r>
       <r>     5.5140     0.6102     7.8798 </r>
       <r>     5.5160     0.6662     7.8812 </r>
       <r>     5.5180     0.6717     7.8825 </r>
      </set>
     </set>
    </array>
   </total>
  </dos>
 </calculation>
 <structure name="finalpos" >
  <crystal>
   <varray name="basis" >
    <v>       2.69468000       2.69468000       0.00000000 </v>
    <v>       0.00000000       2.69468000       2.69468000 </v>
    <v>       2.69468000       0.00000000       2.69468000 </v>
   </varray>
   <i name="volume">     39.13376140 </i>
   <varray name="rec_basis" >
    <v>       0.18555079       0.18555079      -0.18555079 </v>
    <v>      -0.18555079       0.18555079       0.18555079 </v>
    <v>       0.18555079      -0.18555079       0.18555079 </v>
   </varray>
  </crystal>
  <varray name="positions" >
   <v>      -0.00278326       0.00278326      -0.00278326 </v>
   <v>       0.25000000       0.25000000       0.25000000 </v>
  </varray>
 </structure>
</modeling>
