 vasp.5.4.4.18Apr17-6-g9f103f2a35 (build Jun 30 2017 11:10:34) complex          
  
 executed on    STALLO_VASP_5.4.4 date 2018.12.13  12:50:14
 running on   16 total cores
 distrk:  each k-point on   16 cores,    1 groups
 distr:  one band on NCORES_PER_BAND=   1 cores,   16 groups


--------------------------------------------------------------------------------------------------------


 INCAR:
 POTCAR:   PAW_PBE Si 05Jan2001                   

 ----------------------------------------------------------------------------- 
|                                                                             |
|           W    W    AA    RRRRR   N    N  II  N    N   GGGG   !!!           |
|           W    W   A  A   R    R  NN   N  II  NN   N  G    G  !!!           |
|           W    W  A    A  R    R  N N  N  II  N N  N  G       !!!           |
|           W WW W  AAAAAA  RRRRR   N  N N  II  N  N N  G  GGG   !            |
|           WW  WW  A    A  R   R   N   NN  II  N   NN  G    G                |
|           W    W  A    A  R    R  N    N  II  N    N   GGGG   !!!           |
|                                                                             |
|      For optimal performance we recommend to set                            |
|        NCORE= 4 - approx SQRT( number of cores)                             |
|      NCORE specifies how many cores store one orbital (NPAR=cpu/NCORE).     |
|      This setting can  greatly improve the performance of VASP for DFT.     |
|      The default,   NCORE=1            might be grossly inefficient         |
|      on modern multi-core architectures or massively parallel machines.     |
|      Do your own testing !!!!                                               |
|      Unfortunately you need to use the default for GW and RPA calculations. |
|      (for HF NCORE is supported but not extensively tested yet)             |
|                                                                             |
 ----------------------------------------------------------------------------- 

 POTCAR:   PAW_PBE Si 05Jan2001                   
   VRHFIN =Si: s2p2                                                             
   LEXCH  = PE                                                                  
   EATOM  =   103.0669 eV,    7.5752 Ry                                         
                                                                                
   TITEL  = PAW_PBE Si 05Jan2001                                                
   LULTRA =        F    use ultrasoft PP ?                                      
   IUNSCR =        1    unscreen: 0-lin 1-nonlin 2-no                           
   RPACOR =    1.500    partial core radius                                     
   POMASS =   28.085; ZVAL   =    4.000    mass and valenz                      
   RCORE  =    1.900    outmost cutoff radius                                   
   RWIGS  =    2.480; RWIGS  =    1.312    wigner-seitz radius (au A)           
   ENMAX  =  245.345; ENMIN  =  184.009 eV                                      
   ICORE  =        2    local potential                                         
   LCOR   =        T    correct aug charges                                     
   LPAW   =        T    paw PP                                                  
   EAUG   =  322.069                                                            
   DEXC   =    -.007                                                            
   RMAX   =    2.944    core radius for proj-oper                               
   RAUG   =    1.300    factor for augmentation sphere                          
   RDEP   =    1.993    radius for radial grids                                 
   QCUT   =   -4.246; QGAM   =    8.493    optimization parameters              
                                                                                
   Description                                                                  
     l     E      TYP  RCUT    TYP  RCUT                                        
     0   .000     23  1.900                                                     
     0   .000     23  1.900                                                     
     1   .000     23  1.900                                                     
     1   .000     23  1.900                                                     
     2   .000      7  1.900                                                     
  local pseudopotential read in
  partial core-charges read in
  atomic valenz-charges read in
  non local Contribution for L=           0  read in
    real space projection operators read in
  non local Contribution for L=           0  read in
    real space projection operators read in
  non local Contribution for L=           1  read in
    real space projection operators read in
  non local Contribution for L=           1  read in
    real space projection operators read in
    PAW grid and wavefunctions read in
 
   number of l-projection  operators is LMAX  =           4
   number of lm-projection operators is LMMAX =           8
 
 PAW_PBE Si 05Jan2001                   :
 energy of atom  1       EATOM= -103.0669
 kinetic energy error for atom=    0.0013 (will be added to EATOM!!)
 
 
 POSCAR: Si                                      
  positions in direct lattice
  No initial velocities read in
 exchange correlation table for  LEXCH =        8
   RHO(1)=    0.500       N(1)  =     2000
   RHO(2)=  100.500       N(2)  =     4000
 


--------------------------------------------------------------------------------------------------------


 ion  position               nearest neighbor table
   1  0.000  0.000  0.000-   2 2.33   2 2.33   2 2.33   2 2.33
   2  0.250  0.250  0.250-   1 2.33   1 2.33   1 2.33   1 2.33
 
  LATTYP: Found a face centered cubic cell.
 ALAT       =     5.3893600000
  
  Lattice vectors:
  
 A1 = (   2.6946800000,   2.6946800000,   0.0000000000)
 A2 = (   0.0000000000,   2.6946800000,   2.6946800000)
 A3 = (   2.6946800000,   0.0000000000,   2.6946800000)


Analysis of symmetry for initial positions (statically):
=====================================================================
 Subroutine PRICEL returns:
 Original cell was already a primitive cell.
 

 Routine SETGRP: Setting up the symmetry group for a 
 face centered cubic supercell.


 Subroutine GETGRP returns: Found 48 space group operations
 (whereof 24 operations were pure point group operations)
 out of a pool of 48 trial point group operations.


The static configuration has the point symmetry T_d .
 The point group associated with its full space group is O_h .


Analysis of symmetry for dynamics (positions and initial velocities):
=====================================================================
 Subroutine PRICEL returns:
 Original cell was already a primitive cell.
 

 Routine SETGRP: Setting up the symmetry group for a 
 face centered cubic supercell.


 Subroutine GETGRP returns: Found 48 space group operations
 (whereof 24 operations were pure point group operations)
 out of a pool of 48 trial point group operations.


The dynamic configuration has the point symmetry T_d .
 The point group associated with its full space group is O_h .


 Subroutine INISYM returns: Found 48 space group operations
 (whereof 24 operations are pure point group operations),
 and found     1 'primitive' translations

 
 
 KPOINTS: Automatic mesh                          

Automatic generation of k-mesh.
Space group operators:
 irot       det(A)        alpha          n_x          n_y          n_z        tau_x        tau_y        tau_z
    1     1.000000     0.000000     1.000000     0.000000     0.000000     0.000000     0.000000     0.000000
    2     1.000000   120.000000    -0.577350    -0.577350    -0.577350     0.000000     0.000000     0.000000
    3     1.000000   120.000000     0.577350     0.577350     0.577350     0.000000     0.000000     0.000000
    4    -1.000000    90.000000    -0.000000    -1.000000     0.000000     0.000000     0.000000     0.000000
    5    -1.000000   180.000000     0.707107     0.707107     0.000000     0.000000     0.000000     0.000000
    6    -1.000000    90.000000     1.000000     0.000000     0.000000     0.000000     0.000000     0.000000
    7     1.000000   180.000000     0.000000     1.000000    -0.000000     0.000000     0.000000     0.000000
    8     1.000000   120.000000     0.577350     0.577350    -0.577350     0.000000     0.000000     0.000000
    9     1.000000   120.000000     0.577350    -0.577350    -0.577350     0.000000     0.000000     0.000000
   10    -1.000000    90.000000    -0.000000     1.000000     0.000000     0.000000     0.000000     0.000000
   11    -1.000000    90.000000    -0.000000     0.000000    -1.000000     0.000000     0.000000     0.000000
   12    -1.000000   180.000000     0.000000    -0.707107    -0.707107     0.000000     0.000000     0.000000
   13     1.000000   120.000000    -0.577350     0.577350     0.577350     0.000000     0.000000     0.000000
   14     1.000000   120.000000    -0.577350     0.577350    -0.577350     0.000000     0.000000     0.000000
   15     1.000000   180.000000     0.000000    -0.000000    -1.000000     0.000000     0.000000     0.000000
   16    -1.000000    90.000000    -1.000000     0.000000     0.000000     0.000000     0.000000     0.000000
   17    -1.000000   180.000000     0.707107     0.000000     0.707107     0.000000     0.000000     0.000000
   18    -1.000000    90.000000     0.000000    -0.000000     1.000000     0.000000     0.000000     0.000000
   19     1.000000   120.000000    -0.577350    -0.577350     0.577350     0.000000     0.000000     0.000000
   20     1.000000   180.000000     1.000000     0.000000     0.000000     0.000000     0.000000     0.000000
   21     1.000000   120.000000     0.577350    -0.577350     0.577350     0.000000     0.000000     0.000000
   22    -1.000000   180.000000     0.707107    -0.707107    -0.000000     0.000000     0.000000     0.000000
   23    -1.000000   180.000000     0.707107     0.000000    -0.707107     0.000000     0.000000     0.000000
   24    -1.000000   180.000000     0.000000    -0.707107     0.707107     0.000000     0.000000     0.000000
   25    -1.000000     0.000000     1.000000     0.000000     0.000000     0.250000     0.250000     0.250000
   26    -1.000000   120.000000    -0.577350    -0.577350    -0.577350     0.250000     0.250000     0.250000
   27    -1.000000   120.000000     0.577350     0.577350     0.577350     0.250000     0.250000     0.250000
   28     1.000000    90.000000    -0.000000    -1.000000     0.000000     0.250000     0.250000     0.250000
   29     1.000000   180.000000     0.707107     0.707107     0.000000     0.250000     0.250000     0.250000
   30     1.000000    90.000000     1.000000     0.000000     0.000000     0.250000     0.250000     0.250000
   31    -1.000000   180.000000     0.000000     1.000000    -0.000000     0.250000     0.250000     0.250000
   32    -1.000000   120.000000     0.577350     0.577350    -0.577350     0.250000     0.250000     0.250000
   33    -1.000000   120.000000     0.577350    -0.577350    -0.577350     0.250000     0.250000     0.250000
   34     1.000000    90.000000    -0.000000     1.000000     0.000000     0.250000     0.250000     0.250000
   35     1.000000    90.000000    -0.000000     0.000000    -1.000000     0.250000     0.250000     0.250000
   36     1.000000   180.000000     0.000000    -0.707107    -0.707107     0.250000     0.250000     0.250000
   37    -1.000000   120.000000    -0.577350     0.577350     0.577350     0.250000     0.250000     0.250000
   38    -1.000000   120.000000    -0.577350     0.577350    -0.577350     0.250000     0.250000     0.250000
   39    -1.000000   180.000000     0.000000    -0.000000    -1.000000     0.250000     0.250000     0.250000
   40     1.000000    90.000000    -1.000000     0.000000     0.000000     0.250000     0.250000     0.250000
   41     1.000000   180.000000     0.707107     0.000000     0.707107     0.250000     0.250000     0.250000
   42     1.000000    90.000000     0.000000    -0.000000     1.000000     0.250000     0.250000     0.250000
   43    -1.000000   120.000000    -0.577350    -0.577350     0.577350     0.250000     0.250000     0.250000
   44    -1.000000   180.000000     1.000000     0.000000     0.000000     0.250000     0.250000     0.250000
   45    -1.000000   120.000000     0.577350    -0.577350     0.577350     0.250000     0.250000     0.250000
   46     1.000000   180.000000     0.707107    -0.707107    -0.000000     0.250000     0.250000     0.250000
   47     1.000000   180.000000     0.707107     0.000000    -0.707107     0.250000     0.250000     0.250000
   48     1.000000   180.000000     0.000000    -0.707107     0.707107     0.250000     0.250000     0.250000
 
 Subroutine IBZKPT returns following result:
 ===========================================
 
 Found     56 irreducible k-points:
 
 Following reciprocal coordinates:
            Coordinates               Weight
  0.000000  0.000000  0.000000      1.000000
  0.090909 -0.000000 -0.000000      8.000000
  0.181818 -0.000000 -0.000000      8.000000
  0.272727  0.000000  0.000000      8.000000
  0.363636 -0.000000 -0.000000      8.000000
  0.454545 -0.000000 -0.000000      8.000000
  0.090909  0.090909  0.000000      6.000000
  0.181818  0.090909  0.000000     24.000000
  0.272727  0.090909 -0.000000     24.000000
  0.363636  0.090909  0.000000     24.000000
  0.454545  0.090909 -0.000000     24.000000
 -0.454545  0.090909 -0.000000     24.000000
 -0.363636  0.090909 -0.000000     24.000000
 -0.272727  0.090909  0.000000     24.000000
 -0.181818  0.090909 -0.000000     24.000000
 -0.090909  0.090909 -0.000000     12.000000
  0.181818  0.181818  0.000000      6.000000
  0.272727  0.181818  0.000000     24.000000
  0.363636  0.181818  0.000000     24.000000
  0.454545  0.181818  0.000000     24.000000
 -0.454545  0.181818 -0.000000     24.000000
 -0.363636  0.181818 -0.000000     24.000000
 -0.272727  0.181818 -0.000000     24.000000
 -0.181818  0.181818 -0.000000     12.000000
  0.272727  0.272727  0.000000      6.000000
  0.363636  0.272727  0.000000     24.000000
  0.454545  0.272727  0.000000     24.000000
 -0.454545  0.272727  0.000000     24.000000
 -0.363636  0.272727  0.000000     24.000000
 -0.272727  0.272727  0.000000     12.000000
  0.363636  0.363636  0.000000      6.000000
  0.454545  0.363636  0.000000     24.000000
 -0.454545  0.363636  0.000000     24.000000
 -0.363636  0.363636 -0.000000     12.000000
  0.454545  0.454545  0.000000      6.000000
 -0.454545  0.454545  0.000000     12.000000
  0.272727  0.181818  0.090909     24.000000
  0.363636  0.181818  0.090909     48.000000
  0.454545  0.181818  0.090909     48.000000
 -0.454545  0.181818  0.090909     48.000000
  0.363636  0.272727  0.090909     24.000000
  0.454545  0.272727  0.090909     48.000000
 -0.454545  0.272727  0.090909     48.000000
 -0.363636  0.272727  0.090909     48.000000
 -0.272727  0.272727  0.090909     48.000000
 -0.181818  0.272727  0.090909     24.000000
  0.454545  0.363636  0.090909     24.000000
 -0.454545  0.363636  0.090909     48.000000
 -0.363636  0.363636  0.090909     48.000000
 -0.272727  0.363636  0.090909     24.000000
 -0.454545  0.454545  0.090909     24.000000
 -0.363636  0.454545  0.090909     24.000000
 -0.454545  0.363636  0.181818     24.000000
 -0.363636  0.363636  0.181818     48.000000
 -0.363636  0.454545  0.181818     24.000000
 -0.272727  0.454545  0.181818     24.000000
 
 Following cartesian coordinates:
            Coordinates               Weight
  0.000000  0.000000  0.000000      1.000000
  0.016868  0.016868 -0.016868      8.000000
  0.033737  0.033737 -0.033737      8.000000
  0.050605  0.050605 -0.050605      8.000000
  0.067473  0.067473 -0.067473      8.000000
  0.084341  0.084341 -0.084341      8.000000
  0.000000  0.033737  0.000000      6.000000
  0.016868  0.050605 -0.016868     24.000000
  0.033737  0.067473 -0.033737     24.000000
  0.050605  0.084341 -0.050605     24.000000
  0.067473  0.101210 -0.067473     24.000000
 -0.101210 -0.067473  0.101210     24.000000
 -0.084341 -0.050605  0.084341     24.000000
 -0.067473 -0.033737  0.067473     24.000000
 -0.050605 -0.016868  0.050605     24.000000
 -0.033737  0.000000  0.033737     12.000000
  0.000000  0.067473  0.000000      6.000000
  0.016868  0.084341 -0.016868     24.000000
  0.033737  0.101210 -0.033737     24.000000
  0.050605  0.118078 -0.050605     24.000000
 -0.118078 -0.050605  0.118078     24.000000
 -0.101210 -0.033737  0.101210     24.000000
 -0.084341 -0.016868  0.084341     24.000000
 -0.067473  0.000000  0.067473     12.000000
  0.000000  0.101210  0.000000      6.000000
  0.016868  0.118078 -0.016868     24.000000
  0.033737  0.134946 -0.033737     24.000000
 -0.134946 -0.033737  0.134946     24.000000
 -0.118078 -0.016868  0.118078     24.000000
 -0.101210  0.000000  0.101210     12.000000
  0.000000  0.134946  0.000000      6.000000
  0.016868  0.151814 -0.016868     24.000000
 -0.151814 -0.016868  0.151814     24.000000
 -0.134946  0.000000  0.134946     12.000000
  0.000000  0.168683  0.000000      6.000000
 -0.168683 -0.000000  0.168683     12.000000
  0.033737  0.067473  0.000000     24.000000
  0.050605  0.084341 -0.016868     48.000000
  0.067473  0.101210 -0.033737     48.000000
 -0.101210 -0.067473  0.134946     48.000000
  0.033737  0.101210  0.000000     24.000000
  0.050605  0.118078 -0.016868     48.000000
 -0.118078 -0.050605  0.151814     48.000000
 -0.101210 -0.033737  0.134946     48.000000
 -0.084341 -0.016868  0.118078     48.000000
 -0.067473  0.000000  0.101210     24.000000
  0.033737  0.134946  0.000000     24.000000
 -0.134946 -0.033737  0.168683     48.000000
 -0.118078 -0.016868  0.151814     48.000000
 -0.101210  0.000000  0.134946     24.000000
 -0.151814 -0.016868  0.185551     24.000000
 -0.134946  0.000000  0.168683     24.000000
 -0.118078 -0.050605  0.185551     24.000000
 -0.101210 -0.033737  0.168683     48.000000
 -0.118078 -0.016868  0.185551     24.000000
 -0.101210  0.000000  0.168683     24.000000
 
 
 Subroutine IBZKPT_HF returns following result:
 ==============================================
 
 Found   1331 k-points in 1st BZ
 the following   1331 k-points will be used (e.g. in the exchange kernel)
 Following reciprocal coordinates:   # in IRBZ
  0.000000  0.000000  0.000000    0.00075131   1 t-inv F
  0.090909 -0.000000 -0.000000    0.00075131   2 t-inv F
  0.181818 -0.000000 -0.000000    0.00075131   3 t-inv F
  0.272727  0.000000  0.000000    0.00075131   4 t-inv F
  0.363636 -0.000000 -0.000000    0.00075131   5 t-inv F
  0.454545 -0.000000 -0.000000    0.00075131   6 t-inv F
  0.090909  0.090909  0.000000    0.00075131   7 t-inv F
  0.181818  0.090909  0.000000    0.00075131   8 t-inv F
  0.272727  0.090909 -0.000000    0.00075131   9 t-inv F
  0.363636  0.090909  0.000000    0.00075131  10 t-inv F
  0.454545  0.090909 -0.000000    0.00075131  11 t-inv F
 -0.454545  0.090909 -0.000000    0.00075131  12 t-inv F
 -0.363636  0.090909 -0.000000    0.00075131  13 t-inv F
 -0.272727  0.090909  0.000000    0.00075131  14 t-inv F
 -0.181818  0.090909 -0.000000    0.00075131  15 t-inv F
 -0.090909  0.090909 -0.000000    0.00075131  16 t-inv F
  0.181818  0.181818  0.000000    0.00075131  17 t-inv F
  0.272727  0.181818  0.000000    0.00075131  18 t-inv F
  0.363636  0.181818  0.000000    0.00075131  19 t-inv F
  0.454545  0.181818  0.000000    0.00075131  20 t-inv F
 -0.454545  0.181818 -0.000000    0.00075131  21 t-inv F
 -0.363636  0.181818 -0.000000    0.00075131  22 t-inv F
 -0.272727  0.181818 -0.000000    0.00075131  23 t-inv F
 -0.181818  0.181818 -0.000000    0.00075131  24 t-inv F
  0.272727  0.272727  0.000000    0.00075131  25 t-inv F
  0.363636  0.272727  0.000000    0.00075131  26 t-inv F
  0.454545  0.272727  0.000000    0.00075131  27 t-inv F
 -0.454545  0.272727  0.000000    0.00075131  28 t-inv F
 -0.363636  0.272727  0.000000    0.00075131  29 t-inv F
 -0.272727  0.272727  0.000000    0.00075131  30 t-inv F
  0.363636  0.363636  0.000000    0.00075131  31 t-inv F
  0.454545  0.363636  0.000000    0.00075131  32 t-inv F
 -0.454545  0.363636  0.000000    0.00075131  33 t-inv F
 -0.363636  0.363636 -0.000000    0.00075131  34 t-inv F
  0.454545  0.454545  0.000000    0.00075131  35 t-inv F
 -0.454545  0.454545  0.000000    0.00075131  36 t-inv F
  0.272727  0.181818  0.090909    0.00075131  37 t-inv F
  0.363636  0.181818  0.090909    0.00075131  38 t-inv F
  0.454545  0.181818  0.090909    0.00075131  39 t-inv F
 -0.454545  0.181818  0.090909    0.00075131  40 t-inv F
  0.363636  0.272727  0.090909    0.00075131  41 t-inv F
  0.454545  0.272727  0.090909    0.00075131  42 t-inv F
 -0.454545  0.272727  0.090909    0.00075131  43 t-inv F
 -0.363636  0.272727  0.090909    0.00075131  44 t-inv F
 -0.272727  0.272727  0.090909    0.00075131  45 t-inv F
 -0.181818  0.272727  0.090909    0.00075131  46 t-inv F
  0.454545  0.363636  0.090909    0.00075131  47 t-inv F
 -0.454545  0.363636  0.090909    0.00075131  48 t-inv F
 -0.363636  0.363636  0.090909    0.00075131  49 t-inv F
 -0.272727  0.363636  0.090909    0.00075131  50 t-inv F
 -0.454545  0.454545  0.090909    0.00075131  51 t-inv F
 -0.363636  0.454545  0.090909    0.00075131  52 t-inv F
 -0.454545  0.363636  0.181818    0.00075131  53 t-inv F
 -0.363636  0.363636  0.181818    0.00075131  54 t-inv F
 -0.363636  0.454545  0.181818    0.00075131  55 t-inv F
 -0.272727  0.454545  0.181818    0.00075131  56 t-inv F
 -0.000000  0.090909 -0.000000    0.00075131   2 t-inv F
 -0.000000 -0.000000  0.090909    0.00075131   2 t-inv F
 -0.090909 -0.090909 -0.090909    0.00075131   2 t-inv F
 -0.090909  0.000000  0.000000    0.00075131   2 t-inv F
  0.000000 -0.090909  0.000000    0.00075131   2 t-inv F
  0.000000  0.000000 -0.090909    0.00075131   2 t-inv F
  0.090909  0.090909  0.090909    0.00075131   2 t-inv F
 -0.000000  0.181818 -0.000000    0.00075131   3 t-inv F
 -0.000000 -0.000000  0.181818    0.00075131   3 t-inv F
 -0.181818 -0.181818 -0.181818    0.00075131   3 t-inv F
 -0.181818  0.000000  0.000000    0.00075131   3 t-inv F
  0.000000 -0.181818  0.000000    0.00075131   3 t-inv F
  0.000000  0.000000 -0.181818    0.00075131   3 t-inv F
  0.181818  0.181818  0.181818    0.00075131   3 t-inv F
  0.000000  0.272727  0.000000    0.00075131   4 t-inv F
  0.000000  0.000000  0.272727    0.00075131   4 t-inv F
 -0.272727 -0.272727 -0.272727    0.00075131   4 t-inv F
 -0.272727 -0.000000 -0.000000    0.00075131   4 t-inv F
 -0.000000 -0.272727 -0.000000    0.00075131   4 t-inv F
 -0.000000 -0.000000 -0.272727    0.00075131   4 t-inv F
  0.272727  0.272727  0.272727    0.00075131   4 t-inv F
 -0.000000  0.363636 -0.000000    0.00075131   5 t-inv F
 -0.000000 -0.000000  0.363636    0.00075131   5 t-inv F
 -0.363636 -0.363636 -0.363636    0.00075131   5 t-inv F
 -0.363636  0.000000  0.000000    0.00075131   5 t-inv F
  0.000000 -0.363636  0.000000    0.00075131   5 t-inv F
  0.000000  0.000000 -0.363636    0.00075131   5 t-inv F
  0.363636  0.363636  0.363636    0.00075131   5 t-inv F
 -0.000000  0.454545 -0.000000    0.00075131   6 t-inv F
 -0.000000 -0.000000  0.454545    0.00075131   6 t-inv F
 -0.454545 -0.454545 -0.454545    0.00075131   6 t-inv F
 -0.454545  0.000000  0.000000    0.00075131   6 t-inv F
  0.000000 -0.454545  0.000000    0.00075131   6 t-inv F
  0.000000  0.000000 -0.454545    0.00075131   6 t-inv F
  0.454545  0.454545  0.454545    0.00075131   6 t-inv F
  0.000000  0.090909  0.090909    0.00075131   7 t-inv F
  0.090909  0.000000  0.090909    0.00075131   7 t-inv F
 -0.090909 -0.090909  0.000000    0.00075131   7 t-inv F
 -0.090909  0.000000 -0.090909    0.00075131   7 t-inv F
  0.000000 -0.090909 -0.090909    0.00075131   7 t-inv F
  0.000000  0.181818  0.090909    0.00075131   8 t-inv F
  0.090909  0.000000  0.181818    0.00075131   8 t-inv F
 -0.090909 -0.090909  0.090909    0.00075131   8 t-inv F
 -0.181818 -0.090909 -0.181818    0.00075131   8 t-inv F
  0.090909  0.181818 -0.000000    0.00075131   8 t-inv F
  0.090909 -0.090909 -0.090909    0.00075131   8 t-inv F
 -0.181818 -0.181818 -0.090909    0.00075131   8 t-inv F
 -0.000000  0.090909  0.181818    0.00075131   8 t-inv F
 -0.090909  0.090909 -0.090909    0.00075131   8 t-inv F
 -0.090909 -0.181818 -0.181818    0.00075131   8 t-inv F
  0.181818 -0.000000  0.090909    0.00075131   8 t-inv F
 -0.181818 -0.090909 -0.000000    0.00075131   8 t-inv F
 -0.000000 -0.181818 -0.090909    0.00075131   8 t-inv F
 -0.090909 -0.000000 -0.181818    0.00075131   8 t-inv F
  0.090909  0.090909 -0.090909    0.00075131   8 t-inv F
  0.181818  0.090909  0.181818    0.00075131   8 t-inv F
 -0.090909 -0.181818  0.000000    0.00075131   8 t-inv F
 -0.090909  0.090909  0.090909    0.00075131   8 t-inv F
  0.181818  0.181818  0.090909    0.00075131   8 t-inv F
  0.000000 -0.090909 -0.181818    0.00075131   8 t-inv F
  0.090909 -0.090909  0.090909    0.00075131   8 t-inv F
  0.090909  0.181818  0.181818    0.00075131   8 t-inv F
 -0.181818  0.000000 -0.090909    0.00075131   8 t-inv F
 -0.000000  0.272727  0.090909    0.00075131   9 t-inv F
  0.090909 -0.000000  0.272727    0.00075131   9 t-inv F
 -0.090909 -0.090909  0.181818    0.00075131   9 t-inv F
 -0.272727 -0.181818 -0.272727    0.00075131   9 t-inv F
  0.090909  0.272727  0.000000    0.00075131   9 t-inv F
  0.181818 -0.090909 -0.090909    0.00075131   9 t-inv F
 -0.272727 -0.272727 -0.181818    0.00075131   9 t-inv F
  0.000000  0.090909  0.272727    0.00075131   9 t-inv F
 -0.090909  0.181818 -0.090909    0.00075131   9 t-inv F
 -0.181818 -0.272727 -0.272727    0.00075131   9 t-inv F
  0.272727  0.000000  0.090909    0.00075131   9 t-inv F
 -0.272727 -0.090909  0.000000    0.00075131   9 t-inv F
  0.000000 -0.272727 -0.090909    0.00075131   9 t-inv F
 -0.090909  0.000000 -0.272727    0.00075131   9 t-inv F
  0.090909  0.090909 -0.181818    0.00075131   9 t-inv F
  0.272727  0.181818  0.272727    0.00075131   9 t-inv F
 -0.090909 -0.272727 -0.000000    0.00075131   9 t-inv F
 -0.181818  0.090909  0.090909    0.00075131   9 t-inv F
  0.272727  0.272727  0.181818    0.00075131   9 t-inv F
 -0.000000 -0.090909 -0.272727    0.00075131   9 t-inv F
  0.090909 -0.181818  0.090909    0.00075131   9 t-inv F
  0.181818  0.272727  0.272727    0.00075131   9 t-inv F
 -0.272727 -0.000000 -0.090909    0.00075131   9 t-inv F
  0.000000  0.363636  0.090909    0.00075131  10 t-inv F
  0.090909  0.000000  0.363636    0.00075131  10 t-inv F
 -0.090909 -0.090909  0.272727    0.00075131  10 t-inv F
 -0.363636 -0.272727 -0.363636    0.00075131  10 t-inv F
  0.090909  0.363636 -0.000000    0.00075131  10 t-inv F
  0.272727 -0.090909 -0.090909    0.00075131  10 t-inv F
 -0.363636 -0.363636 -0.272727    0.00075131  10 t-inv F
 -0.000000  0.090909  0.363636    0.00075131  10 t-inv F
 -0.090909  0.272727 -0.090909    0.00075131  10 t-inv F
 -0.272727 -0.363636 -0.363636    0.00075131  10 t-inv F
  0.363636 -0.000000  0.090909    0.00075131  10 t-inv F
 -0.363636 -0.090909 -0.000000    0.00075131  10 t-inv F
 -0.000000 -0.363636 -0.090909    0.00075131  10 t-inv F
 -0.090909 -0.000000 -0.363636    0.00075131  10 t-inv F
  0.090909  0.090909 -0.272727    0.00075131  10 t-inv F
  0.363636  0.272727  0.363636    0.00075131  10 t-inv F
 -0.090909 -0.363636  0.000000    0.00075131  10 t-inv F
 -0.272727  0.090909  0.090909    0.00075131  10 t-inv F
  0.363636  0.363636  0.272727    0.00075131  10 t-inv F
  0.000000 -0.090909 -0.363636    0.00075131  10 t-inv F
  0.090909 -0.272727  0.090909    0.00075131  10 t-inv F
  0.272727  0.363636  0.363636    0.00075131  10 t-inv F
 -0.363636  0.000000 -0.090909    0.00075131  10 t-inv F
 -0.000000  0.454545  0.090909    0.00075131  11 t-inv F
  0.090909 -0.000000  0.454545    0.00075131  11 t-inv F
 -0.090909 -0.090909  0.363636    0.00075131  11 t-inv F
 -0.454545 -0.363636 -0.454545    0.00075131  11 t-inv F
  0.090909  0.454545  0.000000    0.00075131  11 t-inv F
  0.363636 -0.090909 -0.090909    0.00075131  11 t-inv F
 -0.454545 -0.454545 -0.363636    0.00075131  11 t-inv F
  0.000000  0.090909  0.454545    0.00075131  11 t-inv F
 -0.090909  0.363636 -0.090909    0.00075131  11 t-inv F
 -0.363636 -0.454545 -0.454545    0.00075131  11 t-inv F
  0.454545  0.000000  0.090909    0.00075131  11 t-inv F
 -0.454545 -0.090909  0.000000    0.00075131  11 t-inv F
  0.000000 -0.454545 -0.090909    0.00075131  11 t-inv F
 -0.090909  0.000000 -0.454545    0.00075131  11 t-inv F
  0.090909  0.090909 -0.363636    0.00075131  11 t-inv F
  0.454545  0.363636  0.454545    0.00075131  11 t-inv F
 -0.090909 -0.454545 -0.000000    0.00075131  11 t-inv F
 -0.363636  0.090909  0.090909    0.00075131  11 t-inv F
  0.454545  0.454545  0.363636    0.00075131  11 t-inv F
 -0.000000 -0.090909 -0.454545    0.00075131  11 t-inv F
  0.090909 -0.363636  0.090909    0.00075131  11 t-inv F
  0.363636  0.454545  0.454545    0.00075131  11 t-inv F
 -0.454545 -0.000000 -0.090909    0.00075131  11 t-inv F
 -0.000000 -0.454545  0.090909    0.00075131  12 t-inv F
  0.090909 -0.000000 -0.454545    0.00075131  12 t-inv F
 -0.090909 -0.090909 -0.545455    0.00075131  12 t-inv F
  0.454545  0.545455  0.454545    0.00075131  12 t-inv F
  0.090909 -0.454545  0.000000    0.00075131  12 t-inv F
 -0.545455 -0.090909 -0.090909    0.00075131  12 t-inv F
  0.454545  0.454545  0.545455    0.00075131  12 t-inv F
  0.000000  0.090909 -0.454545    0.00075131  12 t-inv F
 -0.090909 -0.545455 -0.090909    0.00075131  12 t-inv F
  0.545455  0.454545  0.454545    0.00075131  12 t-inv F
 -0.454545  0.000000  0.090909    0.00075131  12 t-inv F
  0.454545 -0.090909  0.000000    0.00075131  12 t-inv F
  0.000000  0.454545 -0.090909    0.00075131  12 t-inv F
 -0.090909  0.000000  0.454545    0.00075131  12 t-inv F
  0.090909  0.090909  0.545455    0.00075131  12 t-inv F
 -0.454545 -0.545455 -0.454545    0.00075131  12 t-inv F
 -0.090909  0.454545 -0.000000    0.00075131  12 t-inv F
  0.545455  0.090909  0.090909    0.00075131  12 t-inv F
 -0.454545 -0.454545 -0.545455    0.00075131  12 t-inv F
 -0.000000 -0.090909  0.454545    0.00075131  12 t-inv F
  0.090909  0.545455  0.090909    0.00075131  12 t-inv F
 -0.545455 -0.454545 -0.454545    0.00075131  12 t-inv F
  0.454545 -0.000000 -0.090909    0.00075131  12 t-inv F
 -0.000000 -0.363636  0.090909    0.00075131  13 t-inv F
  0.090909 -0.000000 -0.363636    0.00075131  13 t-inv F
 -0.090909 -0.090909 -0.454545    0.00075131  13 t-inv F
  0.363636  0.454545  0.363636    0.00075131  13 t-inv F
  0.090909 -0.363636  0.000000    0.00075131  13 t-inv F
 -0.454545 -0.090909 -0.090909    0.00075131  13 t-inv F
  0.363636  0.363636  0.454545    0.00075131  13 t-inv F
  0.000000  0.090909 -0.363636    0.00075131  13 t-inv F
 -0.090909 -0.454545 -0.090909    0.00075131  13 t-inv F
  0.454545  0.363636  0.363636    0.00075131  13 t-inv F
 -0.363636  0.000000  0.090909    0.00075131  13 t-inv F
  0.363636 -0.090909  0.000000    0.00075131  13 t-inv F
  0.000000  0.363636 -0.090909    0.00075131  13 t-inv F
 -0.090909  0.000000  0.363636    0.00075131  13 t-inv F
  0.090909  0.090909  0.454545    0.00075131  13 t-inv F
 -0.363636 -0.454545 -0.363636    0.00075131  13 t-inv F
 -0.090909  0.363636 -0.000000    0.00075131  13 t-inv F
  0.454545  0.090909  0.090909    0.00075131  13 t-inv F
 -0.363636 -0.363636 -0.454545    0.00075131  13 t-inv F
 -0.000000 -0.090909  0.363636    0.00075131  13 t-inv F
  0.090909  0.454545  0.090909    0.00075131  13 t-inv F
 -0.454545 -0.363636 -0.363636    0.00075131  13 t-inv F
  0.363636 -0.000000 -0.090909    0.00075131  13 t-inv F
  0.000000 -0.272727  0.090909    0.00075131  14 t-inv F
  0.090909  0.000000 -0.272727    0.00075131  14 t-inv F
 -0.090909 -0.090909 -0.363636    0.00075131  14 t-inv F
  0.272727  0.363636  0.272727    0.00075131  14 t-inv F
  0.090909 -0.272727 -0.000000    0.00075131  14 t-inv F
 -0.363636 -0.090909 -0.090909    0.00075131  14 t-inv F
  0.272727  0.272727  0.363636    0.00075131  14 t-inv F
 -0.000000  0.090909 -0.272727    0.00075131  14 t-inv F
 -0.090909 -0.363636 -0.090909    0.00075131  14 t-inv F
  0.363636  0.272727  0.272727    0.00075131  14 t-inv F
 -0.272727 -0.000000  0.090909    0.00075131  14 t-inv F
  0.272727 -0.090909 -0.000000    0.00075131  14 t-inv F
 -0.000000  0.272727 -0.090909    0.00075131  14 t-inv F
 -0.090909 -0.000000  0.272727    0.00075131  14 t-inv F
  0.090909  0.090909  0.363636    0.00075131  14 t-inv F
 -0.272727 -0.363636 -0.272727    0.00075131  14 t-inv F
 -0.090909  0.272727  0.000000    0.00075131  14 t-inv F
  0.363636  0.090909  0.090909    0.00075131  14 t-inv F
 -0.272727 -0.272727 -0.363636    0.00075131  14 t-inv F
  0.000000 -0.090909  0.272727    0.00075131  14 t-inv F
  0.090909  0.363636  0.090909    0.00075131  14 t-inv F
 -0.363636 -0.272727 -0.272727    0.00075131  14 t-inv F
  0.272727  0.000000 -0.090909    0.00075131  14 t-inv F
 -0.000000 -0.181818  0.090909    0.00075131  15 t-inv F
  0.090909 -0.000000 -0.181818    0.00075131  15 t-inv F
 -0.090909 -0.090909 -0.272727    0.00075131  15 t-inv F
  0.181818  0.272727  0.181818    0.00075131  15 t-inv F
  0.090909 -0.181818  0.000000    0.00075131  15 t-inv F
 -0.272727 -0.090909 -0.090909    0.00075131  15 t-inv F
  0.181818  0.181818  0.272727    0.00075131  15 t-inv F
  0.000000  0.090909 -0.181818    0.00075131  15 t-inv F
 -0.090909 -0.272727 -0.090909    0.00075131  15 t-inv F
  0.272727  0.181818  0.181818    0.00075131  15 t-inv F
 -0.181818  0.000000  0.090909    0.00075131  15 t-inv F
  0.181818 -0.090909  0.000000    0.00075131  15 t-inv F
  0.000000  0.181818 -0.090909    0.00075131  15 t-inv F
 -0.090909  0.000000  0.181818    0.00075131  15 t-inv F
  0.090909  0.090909  0.272727    0.00075131  15 t-inv F
 -0.181818 -0.272727 -0.181818    0.00075131  15 t-inv F
 -0.090909  0.181818 -0.000000    0.00075131  15 t-inv F
  0.272727  0.090909  0.090909    0.00075131  15 t-inv F
 -0.181818 -0.181818 -0.272727    0.00075131  15 t-inv F
 -0.000000 -0.090909  0.181818    0.00075131  15 t-inv F
  0.090909  0.272727  0.090909    0.00075131  15 t-inv F
 -0.272727 -0.181818 -0.181818    0.00075131  15 t-inv F
  0.181818 -0.000000 -0.090909    0.00075131  15 t-inv F
 -0.000000 -0.090909  0.090909    0.00075131  16 t-inv F
  0.090909 -0.000000 -0.090909    0.00075131  16 t-inv F
 -0.090909 -0.090909 -0.181818    0.00075131  16 t-inv F
  0.090909  0.181818  0.090909    0.00075131  16 t-inv F
  0.090909 -0.090909  0.000000    0.00075131  16 t-inv F
 -0.181818 -0.090909 -0.090909    0.00075131  16 t-inv F
  0.090909  0.090909  0.181818    0.00075131  16 t-inv F
  0.000000  0.090909 -0.090909    0.00075131  16 t-inv F
 -0.090909 -0.181818 -0.090909    0.00075131  16 t-inv F
  0.181818  0.090909  0.090909    0.00075131  16 t-inv F
 -0.090909  0.000000  0.090909    0.00075131  16 t-inv F
  0.000000  0.181818  0.181818    0.00075131  17 t-inv F
  0.181818  0.000000  0.181818    0.00075131  17 t-inv F
 -0.181818 -0.181818  0.000000    0.00075131  17 t-inv F
 -0.181818  0.000000 -0.181818    0.00075131  17 t-inv F
  0.000000 -0.181818 -0.181818    0.00075131  17 t-inv F
  0.000000  0.272727  0.181818    0.00075131  18 t-inv F
  0.181818  0.000000  0.272727    0.00075131  18 t-inv F
 -0.181818 -0.181818  0.090909    0.00075131  18 t-inv F
 -0.272727 -0.090909 -0.272727    0.00075131  18 t-inv F
  0.181818  0.272727 -0.000000    0.00075131  18 t-inv F
  0.090909 -0.181818 -0.181818    0.00075131  18 t-inv F
 -0.272727 -0.272727 -0.090909    0.00075131  18 t-inv F
 -0.000000  0.181818  0.272727    0.00075131  18 t-inv F
 -0.181818  0.090909 -0.181818    0.00075131  18 t-inv F
 -0.090909 -0.272727 -0.272727    0.00075131  18 t-inv F
  0.272727 -0.000000  0.181818    0.00075131  18 t-inv F
 -0.272727 -0.181818 -0.000000    0.00075131  18 t-inv F
 -0.000000 -0.272727 -0.181818    0.00075131  18 t-inv F
 -0.181818 -0.000000 -0.272727    0.00075131  18 t-inv F
  0.181818  0.181818 -0.090909    0.00075131  18 t-inv F
  0.272727  0.090909  0.272727    0.00075131  18 t-inv F
 -0.181818 -0.272727  0.000000    0.00075131  18 t-inv F
 -0.090909  0.181818  0.181818    0.00075131  18 t-inv F
  0.272727  0.272727  0.090909    0.00075131  18 t-inv F
  0.000000 -0.181818 -0.272727    0.00075131  18 t-inv F
  0.181818 -0.090909  0.181818    0.00075131  18 t-inv F
  0.090909  0.272727  0.272727    0.00075131  18 t-inv F
 -0.272727  0.000000 -0.181818    0.00075131  18 t-inv F
  0.000000  0.363636  0.181818    0.00075131  19 t-inv F
  0.181818  0.000000  0.363636    0.00075131  19 t-inv F
 -0.181818 -0.181818  0.181818    0.00075131  19 t-inv F
 -0.363636 -0.181818 -0.363636    0.00075131  19 t-inv F
  0.181818  0.363636 -0.000000    0.00075131  19 t-inv F
  0.181818 -0.181818 -0.181818    0.00075131  19 t-inv F
 -0.363636 -0.363636 -0.181818    0.00075131  19 t-inv F
 -0.000000  0.181818  0.363636    0.00075131  19 t-inv F
 -0.181818  0.181818 -0.181818    0.00075131  19 t-inv F
 -0.181818 -0.363636 -0.363636    0.00075131  19 t-inv F
  0.363636 -0.000000  0.181818    0.00075131  19 t-inv F
 -0.363636 -0.181818 -0.000000    0.00075131  19 t-inv F
 -0.000000 -0.363636 -0.181818    0.00075131  19 t-inv F
 -0.181818 -0.000000 -0.363636    0.00075131  19 t-inv F
  0.181818  0.181818 -0.181818    0.00075131  19 t-inv F
  0.363636  0.181818  0.363636    0.00075131  19 t-inv F
 -0.181818 -0.363636  0.000000    0.00075131  19 t-inv F
 -0.181818  0.181818  0.181818    0.00075131  19 t-inv F
  0.363636  0.363636  0.181818    0.00075131  19 t-inv F
  0.000000 -0.181818 -0.363636    0.00075131  19 t-inv F
  0.181818 -0.181818  0.181818    0.00075131  19 t-inv F
  0.181818  0.363636  0.363636    0.00075131  19 t-inv F
 -0.363636  0.000000 -0.181818    0.00075131  19 t-inv F
  0.000000  0.454545  0.181818    0.00075131  20 t-inv F
  0.181818  0.000000  0.454545    0.00075131  20 t-inv F
 -0.181818 -0.181818  0.272727    0.00075131  20 t-inv F
 -0.454545 -0.272727 -0.454545    0.00075131  20 t-inv F
  0.181818  0.454545 -0.000000    0.00075131  20 t-inv F
  0.272727 -0.181818 -0.181818    0.00075131  20 t-inv F
 -0.454545 -0.454545 -0.272727    0.00075131  20 t-inv F
 -0.000000  0.181818  0.454545    0.00075131  20 t-inv F
 -0.181818  0.272727 -0.181818    0.00075131  20 t-inv F
 -0.272727 -0.454545 -0.454545    0.00075131  20 t-inv F
  0.454545 -0.000000  0.181818    0.00075131  20 t-inv F
 -0.454545 -0.181818 -0.000000    0.00075131  20 t-inv F
 -0.000000 -0.454545 -0.181818    0.00075131  20 t-inv F
 -0.181818 -0.000000 -0.454545    0.00075131  20 t-inv F
  0.181818  0.181818 -0.272727    0.00075131  20 t-inv F
  0.454545  0.272727  0.454545    0.00075131  20 t-inv F
 -0.181818 -0.454545  0.000000    0.00075131  20 t-inv F
 -0.272727  0.181818  0.181818    0.00075131  20 t-inv F
  0.454545  0.454545  0.272727    0.00075131  20 t-inv F
  0.000000 -0.181818 -0.454545    0.00075131  20 t-inv F
  0.181818 -0.272727  0.181818    0.00075131  20 t-inv F
  0.272727  0.454545  0.454545    0.00075131  20 t-inv F
 -0.454545  0.000000 -0.181818    0.00075131  20 t-inv F
 -0.000000 -0.454545  0.181818    0.00075131  21 t-inv F
  0.181818 -0.000000 -0.454545    0.00075131  21 t-inv F
 -0.181818 -0.181818 -0.636364    0.00075131  21 t-inv F
  0.454545  0.636364  0.454545    0.00075131  21 t-inv F
  0.181818 -0.454545  0.000000    0.00075131  21 t-inv F
 -0.636364 -0.181818 -0.181818    0.00075131  21 t-inv F
  0.454545  0.454545  0.636364    0.00075131  21 t-inv F
  0.000000  0.181818 -0.454545    0.00075131  21 t-inv F
 -0.181818 -0.636364 -0.181818    0.00075131  21 t-inv F
  0.636364  0.454545  0.454545    0.00075131  21 t-inv F
 -0.454545  0.000000  0.181818    0.00075131  21 t-inv F
  0.454545 -0.181818  0.000000    0.00075131  21 t-inv F
  0.000000  0.454545 -0.181818    0.00075131  21 t-inv F
 -0.181818  0.000000  0.454545    0.00075131  21 t-inv F
  0.181818  0.181818  0.636364    0.00075131  21 t-inv F
 -0.454545 -0.636364 -0.454545    0.00075131  21 t-inv F
 -0.181818  0.454545 -0.000000    0.00075131  21 t-inv F
  0.636364  0.181818  0.181818    0.00075131  21 t-inv F
 -0.454545 -0.454545 -0.636364    0.00075131  21 t-inv F
 -0.000000 -0.181818  0.454545    0.00075131  21 t-inv F
  0.181818  0.636364  0.181818    0.00075131  21 t-inv F
 -0.636364 -0.454545 -0.454545    0.00075131  21 t-inv F
  0.454545 -0.000000 -0.181818    0.00075131  21 t-inv F
 -0.000000 -0.363636  0.181818    0.00075131  22 t-inv F
  0.181818 -0.000000 -0.363636    0.00075131  22 t-inv F
 -0.181818 -0.181818 -0.545455    0.00075131  22 t-inv F
  0.363636  0.545455  0.363636    0.00075131  22 t-inv F
  0.181818 -0.363636  0.000000    0.00075131  22 t-inv F
 -0.545455 -0.181818 -0.181818    0.00075131  22 t-inv F
  0.363636  0.363636  0.545455    0.00075131  22 t-inv F
  0.000000  0.181818 -0.363636    0.00075131  22 t-inv F
 -0.181818 -0.545455 -0.181818    0.00075131  22 t-inv F
  0.545455  0.363636  0.363636    0.00075131  22 t-inv F
 -0.363636  0.000000  0.181818    0.00075131  22 t-inv F
  0.363636 -0.181818  0.000000    0.00075131  22 t-inv F
  0.000000  0.363636 -0.181818    0.00075131  22 t-inv F
 -0.181818  0.000000  0.363636    0.00075131  22 t-inv F
  0.181818  0.181818  0.545455    0.00075131  22 t-inv F
 -0.363636 -0.545455 -0.363636    0.00075131  22 t-inv F
 -0.181818  0.363636 -0.000000    0.00075131  22 t-inv F
  0.545455  0.181818  0.181818    0.00075131  22 t-inv F
 -0.363636 -0.363636 -0.545455    0.00075131  22 t-inv F
 -0.000000 -0.181818  0.363636    0.00075131  22 t-inv F
  0.181818  0.545455  0.181818    0.00075131  22 t-inv F
 -0.545455 -0.363636 -0.363636    0.00075131  22 t-inv F
  0.363636 -0.000000 -0.181818    0.00075131  22 t-inv F
 -0.000000 -0.272727  0.181818    0.00075131  23 t-inv F
  0.181818 -0.000000 -0.272727    0.00075131  23 t-inv F
 -0.181818 -0.181818 -0.454545    0.00075131  23 t-inv F
  0.272727  0.454545  0.272727    0.00075131  23 t-inv F
  0.181818 -0.272727  0.000000    0.00075131  23 t-inv F
 -0.454545 -0.181818 -0.181818    0.00075131  23 t-inv F
  0.272727  0.272727  0.454545    0.00075131  23 t-inv F
  0.000000  0.181818 -0.272727    0.00075131  23 t-inv F
 -0.181818 -0.454545 -0.181818    0.00075131  23 t-inv F
  0.454545  0.272727  0.272727    0.00075131  23 t-inv F
 -0.272727  0.000000  0.181818    0.00075131  23 t-inv F
  0.272727 -0.181818  0.000000    0.00075131  23 t-inv F
  0.000000  0.272727 -0.181818    0.00075131  23 t-inv F
 -0.181818  0.000000  0.272727    0.00075131  23 t-inv F
  0.181818  0.181818  0.454545    0.00075131  23 t-inv F
 -0.272727 -0.454545 -0.272727    0.00075131  23 t-inv F
 -0.181818  0.272727 -0.000000    0.00075131  23 t-inv F
  0.454545  0.181818  0.181818    0.00075131  23 t-inv F
 -0.272727 -0.272727 -0.454545    0.00075131  23 t-inv F
 -0.000000 -0.181818  0.272727    0.00075131  23 t-inv F
  0.181818  0.454545  0.181818    0.00075131  23 t-inv F
 -0.454545 -0.272727 -0.272727    0.00075131  23 t-inv F
  0.272727 -0.000000 -0.181818    0.00075131  23 t-inv F
 -0.000000 -0.181818  0.181818    0.00075131  24 t-inv F
  0.181818 -0.000000 -0.181818    0.00075131  24 t-inv F
 -0.181818 -0.181818 -0.363636    0.00075131  24 t-inv F
  0.181818  0.363636  0.181818    0.00075131  24 t-inv F
  0.181818 -0.181818  0.000000    0.00075131  24 t-inv F
 -0.363636 -0.181818 -0.181818    0.00075131  24 t-inv F
  0.181818  0.181818  0.363636    0.00075131  24 t-inv F
  0.000000  0.181818 -0.181818    0.00075131  24 t-inv F
 -0.181818 -0.363636 -0.181818    0.00075131  24 t-inv F
  0.363636  0.181818  0.181818    0.00075131  24 t-inv F
 -0.181818  0.000000  0.181818    0.00075131  24 t-inv F
  0.000000  0.272727  0.272727    0.00075131  25 t-inv F
  0.272727  0.000000  0.272727    0.00075131  25 t-inv F
 -0.272727 -0.272727  0.000000    0.00075131  25 t-inv F
 -0.272727  0.000000 -0.272727    0.00075131  25 t-inv F
  0.000000 -0.272727 -0.272727    0.00075131  25 t-inv F
  0.000000  0.363636  0.272727    0.00075131  26 t-inv F
  0.272727  0.000000  0.363636    0.00075131  26 t-inv F
 -0.272727 -0.272727  0.090909    0.00075131  26 t-inv F
 -0.363636 -0.090909 -0.363636    0.00075131  26 t-inv F
  0.272727  0.363636 -0.000000    0.00075131  26 t-inv F
  0.090909 -0.272727 -0.272727    0.00075131  26 t-inv F
 -0.363636 -0.363636 -0.090909    0.00075131  26 t-inv F
 -0.000000  0.272727  0.363636    0.00075131  26 t-inv F
 -0.272727  0.090909 -0.272727    0.00075131  26 t-inv F
 -0.090909 -0.363636 -0.363636    0.00075131  26 t-inv F
  0.363636 -0.000000  0.272727    0.00075131  26 t-inv F
 -0.363636 -0.272727 -0.000000    0.00075131  26 t-inv F
 -0.000000 -0.363636 -0.272727    0.00075131  26 t-inv F
 -0.272727 -0.000000 -0.363636    0.00075131  26 t-inv F
  0.272727  0.272727 -0.090909    0.00075131  26 t-inv F
  0.363636  0.090909  0.363636    0.00075131  26 t-inv F
 -0.272727 -0.363636  0.000000    0.00075131  26 t-inv F
 -0.090909  0.272727  0.272727    0.00075131  26 t-inv F
  0.363636  0.363636  0.090909    0.00075131  26 t-inv F
  0.000000 -0.272727 -0.363636    0.00075131  26 t-inv F
  0.272727 -0.090909  0.272727    0.00075131  26 t-inv F
  0.090909  0.363636  0.363636    0.00075131  26 t-inv F
 -0.363636  0.000000 -0.272727    0.00075131  26 t-inv F
  0.000000  0.454545  0.272727    0.00075131  27 t-inv F
  0.272727  0.000000  0.454545    0.00075131  27 t-inv F
 -0.272727 -0.272727  0.181818    0.00075131  27 t-inv F
 -0.454545 -0.181818 -0.454545    0.00075131  27 t-inv F
  0.272727  0.454545 -0.000000    0.00075131  27 t-inv F
  0.181818 -0.272727 -0.272727    0.00075131  27 t-inv F
 -0.454545 -0.454545 -0.181818    0.00075131  27 t-inv F
 -0.000000  0.272727  0.454545    0.00075131  27 t-inv F
 -0.272727  0.181818 -0.272727    0.00075131  27 t-inv F
 -0.181818 -0.454545 -0.454545    0.00075131  27 t-inv F
  0.454545 -0.000000  0.272727    0.00075131  27 t-inv F
 -0.454545 -0.272727 -0.000000    0.00075131  27 t-inv F
 -0.000000 -0.454545 -0.272727    0.00075131  27 t-inv F
 -0.272727 -0.000000 -0.454545    0.00075131  27 t-inv F
  0.272727  0.272727 -0.181818    0.00075131  27 t-inv F
  0.454545  0.181818  0.454545    0.00075131  27 t-inv F
 -0.272727 -0.454545  0.000000    0.00075131  27 t-inv F
 -0.181818  0.272727  0.272727    0.00075131  27 t-inv F
  0.454545  0.454545  0.181818    0.00075131  27 t-inv F
  0.000000 -0.272727 -0.454545    0.00075131  27 t-inv F
  0.272727 -0.181818  0.272727    0.00075131  27 t-inv F
  0.181818  0.454545  0.454545    0.00075131  27 t-inv F
 -0.454545  0.000000 -0.272727    0.00075131  27 t-inv F
  0.000000 -0.454545  0.272727    0.00075131  28 t-inv F
  0.272727  0.000000 -0.454545    0.00075131  28 t-inv F
 -0.272727 -0.272727 -0.727273    0.00075131  28 t-inv F
  0.454545  0.727273  0.454545    0.00075131  28 t-inv F
  0.272727 -0.454545 -0.000000    0.00075131  28 t-inv F
 -0.727273 -0.272727 -0.272727    0.00075131  28 t-inv F
  0.454545  0.454545  0.727273    0.00075131  28 t-inv F
 -0.000000  0.272727 -0.454545    0.00075131  28 t-inv F
 -0.272727 -0.727273 -0.272727    0.00075131  28 t-inv F
  0.727273  0.454545  0.454545    0.00075131  28 t-inv F
 -0.454545 -0.000000  0.272727    0.00075131  28 t-inv F
  0.454545 -0.272727 -0.000000    0.00075131  28 t-inv F
 -0.000000  0.454545 -0.272727    0.00075131  28 t-inv F
 -0.272727 -0.000000  0.454545    0.00075131  28 t-inv F
  0.272727  0.272727  0.727273    0.00075131  28 t-inv F
 -0.454545 -0.727273 -0.454545    0.00075131  28 t-inv F
 -0.272727  0.454545  0.000000    0.00075131  28 t-inv F
  0.727273  0.272727  0.272727    0.00075131  28 t-inv F
 -0.454545 -0.454545 -0.727273    0.00075131  28 t-inv F
  0.000000 -0.272727  0.454545    0.00075131  28 t-inv F
  0.272727  0.727273  0.272727    0.00075131  28 t-inv F
 -0.727273 -0.454545 -0.454545    0.00075131  28 t-inv F
  0.454545  0.000000 -0.272727    0.00075131  28 t-inv F
  0.000000 -0.363636  0.272727    0.00075131  29 t-inv F
  0.272727  0.000000 -0.363636    0.00075131  29 t-inv F
 -0.272727 -0.272727 -0.636364    0.00075131  29 t-inv F
  0.363636  0.636364  0.363636    0.00075131  29 t-inv F
  0.272727 -0.363636 -0.000000    0.00075131  29 t-inv F
 -0.636364 -0.272727 -0.272727    0.00075131  29 t-inv F
  0.363636  0.363636  0.636364    0.00075131  29 t-inv F
 -0.000000  0.272727 -0.363636    0.00075131  29 t-inv F
 -0.272727 -0.636364 -0.272727    0.00075131  29 t-inv F
  0.636364  0.363636  0.363636    0.00075131  29 t-inv F
 -0.363636 -0.000000  0.272727    0.00075131  29 t-inv F
  0.363636 -0.272727 -0.000000    0.00075131  29 t-inv F
 -0.000000  0.363636 -0.272727    0.00075131  29 t-inv F
 -0.272727 -0.000000  0.363636    0.00075131  29 t-inv F
  0.272727  0.272727  0.636364    0.00075131  29 t-inv F
 -0.363636 -0.636364 -0.363636    0.00075131  29 t-inv F
 -0.272727  0.363636  0.000000    0.00075131  29 t-inv F
  0.636364  0.272727  0.272727    0.00075131  29 t-inv F
 -0.363636 -0.363636 -0.636364    0.00075131  29 t-inv F
  0.000000 -0.272727  0.363636    0.00075131  29 t-inv F
  0.272727  0.636364  0.272727    0.00075131  29 t-inv F
 -0.636364 -0.363636 -0.363636    0.00075131  29 t-inv F
  0.363636  0.000000 -0.272727    0.00075131  29 t-inv F
  0.000000 -0.272727  0.272727    0.00075131  30 t-inv F
  0.272727  0.000000 -0.272727    0.00075131  30 t-inv F
 -0.272727 -0.272727 -0.545455    0.00075131  30 t-inv F
  0.272727  0.545455  0.272727    0.00075131  30 t-inv F
  0.272727 -0.272727 -0.000000    0.00075131  30 t-inv F
 -0.545455 -0.272727 -0.272727    0.00075131  30 t-inv F
  0.272727  0.272727  0.545455    0.00075131  30 t-inv F
 -0.000000  0.272727 -0.272727    0.00075131  30 t-inv F
 -0.272727 -0.545455 -0.272727    0.00075131  30 t-inv F
  0.545455  0.272727  0.272727    0.00075131  30 t-inv F
 -0.272727 -0.000000  0.272727    0.00075131  30 t-inv F
  0.000000  0.363636  0.363636    0.00075131  31 t-inv F
  0.363636  0.000000  0.363636    0.00075131  31 t-inv F
 -0.363636 -0.363636  0.000000    0.00075131  31 t-inv F
 -0.363636  0.000000 -0.363636    0.00075131  31 t-inv F
  0.000000 -0.363636 -0.363636    0.00075131  31 t-inv F
  0.000000  0.454545  0.363636    0.00075131  32 t-inv F
  0.363636  0.000000  0.454545    0.00075131  32 t-inv F
 -0.363636 -0.363636  0.090909    0.00075131  32 t-inv F
 -0.454545 -0.090909 -0.454545    0.00075131  32 t-inv F
  0.363636  0.454545 -0.000000    0.00075131  32 t-inv F
  0.090909 -0.363636 -0.363636    0.00075131  32 t-inv F
 -0.454545 -0.454545 -0.090909    0.00075131  32 t-inv F
 -0.000000  0.363636  0.454545    0.00075131  32 t-inv F
 -0.363636  0.090909 -0.363636    0.00075131  32 t-inv F
 -0.090909 -0.454545 -0.454545    0.00075131  32 t-inv F
  0.454545 -0.000000  0.363636    0.00075131  32 t-inv F
 -0.454545 -0.363636 -0.000000    0.00075131  32 t-inv F
 -0.000000 -0.454545 -0.363636    0.00075131  32 t-inv F
 -0.363636 -0.000000 -0.454545    0.00075131  32 t-inv F
  0.363636  0.363636 -0.090909    0.00075131  32 t-inv F
  0.454545  0.090909  0.454545    0.00075131  32 t-inv F
 -0.363636 -0.454545  0.000000    0.00075131  32 t-inv F
 -0.090909  0.363636  0.363636    0.00075131  32 t-inv F
  0.454545  0.454545  0.090909    0.00075131  32 t-inv F
  0.000000 -0.363636 -0.454545    0.00075131  32 t-inv F
  0.363636 -0.090909  0.363636    0.00075131  32 t-inv F
  0.090909  0.454545  0.454545    0.00075131  32 t-inv F
 -0.454545  0.000000 -0.363636    0.00075131  32 t-inv F
  0.000000 -0.454545  0.363636    0.00075131  33 t-inv F
  0.363636  0.000000 -0.454545    0.00075131  33 t-inv F
 -0.363636 -0.363636 -0.818182    0.00075131  33 t-inv F
  0.454545  0.818182  0.454545    0.00075131  33 t-inv F
  0.363636 -0.454545 -0.000000    0.00075131  33 t-inv F
 -0.818182 -0.363636 -0.363636    0.00075131  33 t-inv F
  0.454545  0.454545  0.818182    0.00075131  33 t-inv F
 -0.000000  0.363636 -0.454545    0.00075131  33 t-inv F
 -0.363636 -0.818182 -0.363636    0.00075131  33 t-inv F
  0.818182  0.454545  0.454545    0.00075131  33 t-inv F
 -0.454545 -0.000000  0.363636    0.00075131  33 t-inv F
  0.454545 -0.363636 -0.000000    0.00075131  33 t-inv F
 -0.000000  0.454545 -0.363636    0.00075131  33 t-inv F
 -0.363636 -0.000000  0.454545    0.00075131  33 t-inv F
  0.363636  0.363636  0.818182    0.00075131  33 t-inv F
 -0.454545 -0.818182 -0.454545    0.00075131  33 t-inv F
 -0.363636  0.454545  0.000000    0.00075131  33 t-inv F
  0.818182  0.363636  0.363636    0.00075131  33 t-inv F
 -0.454545 -0.454545 -0.818182    0.00075131  33 t-inv F
  0.000000 -0.363636  0.454545    0.00075131  33 t-inv F
  0.363636  0.818182  0.363636    0.00075131  33 t-inv F
 -0.818182 -0.454545 -0.454545    0.00075131  33 t-inv F
  0.454545  0.000000 -0.363636    0.00075131  33 t-inv F
 -0.000000 -0.363636  0.363636    0.00075131  34 t-inv F
  0.363636 -0.000000 -0.363636    0.00075131  34 t-inv F
 -0.363636 -0.363636 -0.727273    0.00075131  34 t-inv F
  0.363636  0.727273  0.363636    0.00075131  34 t-inv F
  0.363636 -0.363636  0.000000    0.00075131  34 t-inv F
 -0.727273 -0.363636 -0.363636    0.00075131  34 t-inv F
  0.363636  0.363636  0.727273    0.00075131  34 t-inv F
  0.000000  0.363636 -0.363636    0.00075131  34 t-inv F
 -0.363636 -0.727273 -0.363636    0.00075131  34 t-inv F
  0.727273  0.363636  0.363636    0.00075131  34 t-inv F
 -0.363636  0.000000  0.363636    0.00075131  34 t-inv F
  0.000000  0.454545  0.454545    0.00075131  35 t-inv F
  0.454545  0.000000  0.454545    0.00075131  35 t-inv F
 -0.454545 -0.454545  0.000000    0.00075131  35 t-inv F
 -0.454545  0.000000 -0.454545    0.00075131  35 t-inv F
  0.000000 -0.454545 -0.454545    0.00075131  35 t-inv F
  0.000000 -0.454545  0.454545    0.00075131  36 t-inv F
  0.454545  0.000000 -0.454545    0.00075131  36 t-inv F
 -0.454545 -0.454545 -0.909091    0.00075131  36 t-inv F
  0.454545  0.909091  0.454545    0.00075131  36 t-inv F
  0.454545 -0.454545 -0.000000    0.00075131  36 t-inv F
 -0.909091 -0.454545 -0.454545    0.00075131  36 t-inv F
  0.454545  0.454545  0.909091    0.00075131  36 t-inv F
 -0.000000  0.454545 -0.454545    0.00075131  36 t-inv F
 -0.454545 -0.909091 -0.454545    0.00075131  36 t-inv F
  0.909091  0.454545  0.454545    0.00075131  36 t-inv F
 -0.454545 -0.000000  0.454545    0.00075131  36 t-inv F
  0.090909  0.272727  0.181818    0.00075131  37 t-inv F
  0.181818  0.090909  0.272727    0.00075131  37 t-inv F
 -0.181818 -0.090909  0.090909    0.00075131  37 t-inv F
 -0.272727 -0.090909 -0.181818    0.00075131  37 t-inv F
 -0.090909  0.181818  0.090909    0.00075131  37 t-inv F
  0.090909  0.181818 -0.090909    0.00075131  37 t-inv F
  0.090909 -0.090909 -0.181818    0.00075131  37 t-inv F
 -0.181818 -0.090909 -0.272727    0.00075131  37 t-inv F
 -0.181818 -0.272727 -0.090909    0.00075131  37 t-inv F
  0.090909 -0.090909  0.181818    0.00075131  37 t-inv F
  0.090909 -0.181818 -0.090909    0.00075131  37 t-inv F
 -0.090909  0.090909  0.181818    0.00075131  37 t-inv F
 -0.181818  0.090909 -0.090909    0.00075131  37 t-inv F
 -0.272727 -0.181818 -0.090909    0.00075131  37 t-inv F
 -0.090909 -0.181818 -0.272727    0.00075131  37 t-inv F
  0.181818  0.090909 -0.090909    0.00075131  37 t-inv F
 -0.090909  0.090909 -0.181818    0.00075131  37 t-inv F
  0.181818 -0.090909  0.090909    0.00075131  37 t-inv F
 -0.090909 -0.181818  0.090909    0.00075131  37 t-inv F
 -0.090909 -0.272727 -0.181818    0.00075131  37 t-inv F
  0.272727  0.090909  0.181818    0.00075131  37 t-inv F
  0.181818  0.272727  0.090909    0.00075131  37 t-inv F
  0.090909  0.181818  0.272727    0.00075131  37 t-inv F
  0.090909  0.363636  0.181818    0.00075131  38 t-inv F
  0.181818  0.090909  0.363636    0.00075131  38 t-inv F
 -0.181818 -0.090909  0.181818    0.00075131  38 t-inv F
 -0.363636 -0.181818 -0.272727    0.00075131  38 t-inv F
 -0.090909  0.272727  0.090909    0.00075131  38 t-inv F
  0.090909  0.272727 -0.090909    0.00075131  38 t-inv F
  0.181818 -0.090909 -0.181818    0.00075131  38 t-inv F
 -0.272727 -0.181818 -0.363636    0.00075131  38 t-inv F
 -0.272727 -0.363636 -0.181818    0.00075131  38 t-inv F
  0.090909 -0.090909  0.272727    0.00075131  38 t-inv F
  0.181818 -0.181818 -0.090909    0.00075131  38 t-inv F
 -0.090909  0.090909  0.272727    0.00075131  38 t-inv F
 -0.181818  0.181818 -0.090909    0.00075131  38 t-inv F
 -0.363636 -0.272727 -0.181818    0.00075131  38 t-inv F
 -0.181818 -0.272727 -0.363636    0.00075131  38 t-inv F
  0.272727  0.090909 -0.090909    0.00075131  38 t-inv F
 -0.090909  0.181818 -0.181818    0.00075131  38 t-inv F
  0.272727 -0.090909  0.090909    0.00075131  38 t-inv F
 -0.090909 -0.181818  0.181818    0.00075131  38 t-inv F
 -0.181818 -0.363636 -0.272727    0.00075131  38 t-inv F
  0.363636  0.090909  0.181818    0.00075131  38 t-inv F
  0.181818  0.363636  0.090909    0.00075131  38 t-inv F
  0.090909  0.181818  0.363636    0.00075131  38 t-inv F
 -0.363636 -0.181818 -0.090909    0.00075131  38 t-inv F
 -0.090909 -0.363636 -0.181818    0.00075131  38 t-inv F
 -0.181818 -0.090909 -0.363636    0.00075131  38 t-inv F
  0.181818  0.090909 -0.181818    0.00075131  38 t-inv F
  0.363636  0.181818  0.272727    0.00075131  38 t-inv F
  0.090909 -0.272727 -0.090909    0.00075131  38 t-inv F
 -0.090909 -0.272727  0.090909    0.00075131  38 t-inv F
 -0.181818  0.090909  0.181818    0.00075131  38 t-inv F
  0.272727  0.181818  0.363636    0.00075131  38 t-inv F
  0.272727  0.363636  0.181818    0.00075131  38 t-inv F
 -0.090909  0.090909 -0.272727    0.00075131  38 t-inv F
 -0.181818  0.181818  0.090909    0.00075131  38 t-inv F
  0.090909 -0.090909 -0.272727    0.00075131  38 t-inv F
  0.181818 -0.181818  0.090909    0.00075131  38 t-inv F
  0.363636  0.272727  0.181818    0.00075131  38 t-inv F
  0.181818  0.272727  0.363636    0.00075131  38 t-inv F
 -0.272727 -0.090909  0.090909    0.00075131  38 t-inv F
  0.090909 -0.181818  0.181818    0.00075131  38 t-inv F
 -0.272727  0.090909 -0.090909    0.00075131  38 t-inv F
  0.090909  0.181818 -0.181818    0.00075131  38 t-inv F
  0.181818  0.363636  0.272727    0.00075131  38 t-inv F
 -0.363636 -0.090909 -0.181818    0.00075131  38 t-inv F
 -0.181818 -0.363636 -0.090909    0.00075131  38 t-inv F
 -0.090909 -0.181818 -0.363636    0.00075131  38 t-inv F
  0.090909  0.454545  0.181818    0.00075131  39 t-inv F
  0.181818  0.090909  0.454545    0.00075131  39 t-inv F
 -0.181818 -0.090909  0.272727    0.00075131  39 t-inv F
 -0.454545 -0.272727 -0.363636    0.00075131  39 t-inv F
 -0.090909  0.363636  0.090909    0.00075131  39 t-inv F
  0.090909  0.363636 -0.090909    0.00075131  39 t-inv F
  0.272727 -0.090909 -0.181818    0.00075131  39 t-inv F
 -0.363636 -0.272727 -0.454545    0.00075131  39 t-inv F
 -0.363636 -0.454545 -0.272727    0.00075131  39 t-inv F
  0.090909 -0.090909  0.363636    0.00075131  39 t-inv F
  0.272727 -0.181818 -0.090909    0.00075131  39 t-inv F
 -0.090909  0.090909  0.363636    0.00075131  39 t-inv F
 -0.181818  0.272727 -0.090909    0.00075131  39 t-inv F
 -0.454545 -0.363636 -0.272727    0.00075131  39 t-inv F
 -0.272727 -0.363636 -0.454545    0.00075131  39 t-inv F
  0.363636  0.090909 -0.090909    0.00075131  39 t-inv F
 -0.090909  0.272727 -0.181818    0.00075131  39 t-inv F
  0.363636 -0.090909  0.090909    0.00075131  39 t-inv F
 -0.090909 -0.181818  0.272727    0.00075131  39 t-inv F
 -0.272727 -0.454545 -0.363636    0.00075131  39 t-inv F
  0.454545  0.090909  0.181818    0.00075131  39 t-inv F
  0.181818  0.454545  0.090909    0.00075131  39 t-inv F
  0.090909  0.181818  0.454545    0.00075131  39 t-inv F
 -0.454545 -0.181818 -0.090909    0.00075131  39 t-inv F
 -0.090909 -0.454545 -0.181818    0.00075131  39 t-inv F
 -0.181818 -0.090909 -0.454545    0.00075131  39 t-inv F
  0.181818  0.090909 -0.272727    0.00075131  39 t-inv F
  0.454545  0.272727  0.363636    0.00075131  39 t-inv F
  0.090909 -0.363636 -0.090909    0.00075131  39 t-inv F
 -0.090909 -0.363636  0.090909    0.00075131  39 t-inv F
 -0.272727  0.090909  0.181818    0.00075131  39 t-inv F
  0.363636  0.272727  0.454545    0.00075131  39 t-inv F
  0.363636  0.454545  0.272727    0.00075131  39 t-inv F
 -0.090909  0.090909 -0.363636    0.00075131  39 t-inv F
 -0.272727  0.181818  0.090909    0.00075131  39 t-inv F
  0.090909 -0.090909 -0.363636    0.00075131  39 t-inv F
  0.181818 -0.272727  0.090909    0.00075131  39 t-inv F
  0.454545  0.363636  0.272727    0.00075131  39 t-inv F
  0.272727  0.363636  0.454545    0.00075131  39 t-inv F
 -0.363636 -0.090909  0.090909    0.00075131  39 t-inv F
  0.090909 -0.272727  0.181818    0.00075131  39 t-inv F
 -0.363636  0.090909 -0.090909    0.00075131  39 t-inv F
  0.090909  0.181818 -0.272727    0.00075131  39 t-inv F
  0.272727  0.454545  0.363636    0.00075131  39 t-inv F
 -0.454545 -0.090909 -0.181818    0.00075131  39 t-inv F
 -0.181818 -0.454545 -0.090909    0.00075131  39 t-inv F
 -0.090909 -0.181818 -0.454545    0.00075131  39 t-inv F
  0.090909 -0.454545  0.181818    0.00075131  40 t-inv F
  0.181818  0.090909 -0.454545    0.00075131  40 t-inv F
 -0.181818 -0.090909 -0.636364    0.00075131  40 t-inv F
  0.454545  0.636364  0.545455    0.00075131  40 t-inv F
 -0.090909 -0.545455  0.090909    0.00075131  40 t-inv F
  0.090909 -0.545455 -0.090909    0.00075131  40 t-inv F
 -0.636364 -0.090909 -0.181818    0.00075131  40 t-inv F
  0.545455  0.636364  0.454545    0.00075131  40 t-inv F
  0.545455  0.454545  0.636364    0.00075131  40 t-inv F
  0.090909 -0.090909 -0.545455    0.00075131  40 t-inv F
 -0.636364 -0.181818 -0.090909    0.00075131  40 t-inv F
 -0.090909  0.090909 -0.545455    0.00075131  40 t-inv F
 -0.181818 -0.636364 -0.090909    0.00075131  40 t-inv F
  0.454545  0.545455  0.636364    0.00075131  40 t-inv F
  0.636364  0.545455  0.454545    0.00075131  40 t-inv F
 -0.545455  0.090909 -0.090909    0.00075131  40 t-inv F
 -0.090909 -0.636364 -0.181818    0.00075131  40 t-inv F
 -0.545455 -0.090909  0.090909    0.00075131  40 t-inv F
 -0.090909 -0.181818 -0.636364    0.00075131  40 t-inv F
  0.636364  0.454545  0.545455    0.00075131  40 t-inv F
 -0.454545  0.090909  0.181818    0.00075131  40 t-inv F
  0.181818 -0.454545  0.090909    0.00075131  40 t-inv F
  0.090909  0.181818 -0.454545    0.00075131  40 t-inv F
  0.454545 -0.181818 -0.090909    0.00075131  40 t-inv F
 -0.090909  0.454545 -0.181818    0.00075131  40 t-inv F
 -0.181818 -0.090909  0.454545    0.00075131  40 t-inv F
  0.181818  0.090909  0.636364    0.00075131  40 t-inv F
 -0.454545 -0.636364 -0.545455    0.00075131  40 t-inv F
  0.090909  0.545455 -0.090909    0.00075131  40 t-inv F
 -0.090909  0.545455  0.090909    0.00075131  40 t-inv F
  0.636364  0.090909  0.181818    0.00075131  40 t-inv F
 -0.545455 -0.636364 -0.454545    0.00075131  40 t-inv F
 -0.545455 -0.454545 -0.636364    0.00075131  40 t-inv F
 -0.090909  0.090909  0.545455    0.00075131  40 t-inv F
  0.636364  0.181818  0.090909    0.00075131  40 t-inv F
  0.090909 -0.090909  0.545455    0.00075131  40 t-inv F
  0.181818  0.636364  0.090909    0.00075131  40 t-inv F
 -0.454545 -0.545455 -0.636364    0.00075131  40 t-inv F
 -0.636364 -0.545455 -0.454545    0.00075131  40 t-inv F
  0.545455 -0.090909  0.090909    0.00075131  40 t-inv F
  0.090909  0.636364  0.181818    0.00075131  40 t-inv F
  0.545455  0.090909 -0.090909    0.00075131  40 t-inv F
  0.090909  0.181818  0.636364    0.00075131  40 t-inv F
 -0.636364 -0.454545 -0.545455    0.00075131  40 t-inv F
  0.454545 -0.090909 -0.181818    0.00075131  40 t-inv F
 -0.181818  0.454545 -0.090909    0.00075131  40 t-inv F
 -0.090909 -0.181818  0.454545    0.00075131  40 t-inv F
  0.090909  0.363636  0.272727    0.00075131  41 t-inv F
  0.272727  0.090909  0.363636    0.00075131  41 t-inv F
 -0.272727 -0.181818  0.090909    0.00075131  41 t-inv F
 -0.363636 -0.090909 -0.272727    0.00075131  41 t-inv F
 -0.090909  0.272727  0.181818    0.00075131  41 t-inv F
  0.181818  0.272727 -0.090909    0.00075131  41 t-inv F
  0.090909 -0.181818 -0.272727    0.00075131  41 t-inv F
 -0.272727 -0.090909 -0.363636    0.00075131  41 t-inv F
 -0.272727 -0.363636 -0.090909    0.00075131  41 t-inv F
  0.181818 -0.090909  0.272727    0.00075131  41 t-inv F
  0.090909 -0.272727 -0.181818    0.00075131  41 t-inv F
 -0.090909  0.181818  0.272727    0.00075131  41 t-inv F
 -0.272727  0.090909 -0.181818    0.00075131  41 t-inv F
 -0.363636 -0.272727 -0.090909    0.00075131  41 t-inv F
 -0.090909 -0.272727 -0.363636    0.00075131  41 t-inv F
  0.272727  0.181818 -0.090909    0.00075131  41 t-inv F
 -0.181818  0.090909 -0.272727    0.00075131  41 t-inv F
  0.272727 -0.090909  0.181818    0.00075131  41 t-inv F
 -0.181818 -0.272727  0.090909    0.00075131  41 t-inv F
 -0.090909 -0.363636 -0.272727    0.00075131  41 t-inv F
  0.363636  0.090909  0.272727    0.00075131  41 t-inv F
  0.272727  0.363636  0.090909    0.00075131  41 t-inv F
  0.090909  0.272727  0.363636    0.00075131  41 t-inv F
  0.090909  0.454545  0.272727    0.00075131  42 t-inv F
  0.272727  0.090909  0.454545    0.00075131  42 t-inv F
 -0.272727 -0.181818  0.181818    0.00075131  42 t-inv F
 -0.454545 -0.181818 -0.363636    0.00075131  42 t-inv F
 -0.090909  0.363636  0.181818    0.00075131  42 t-inv F
  0.181818  0.363636 -0.090909    0.00075131  42 t-inv F
  0.181818 -0.181818 -0.272727    0.00075131  42 t-inv F
 -0.363636 -0.181818 -0.454545    0.00075131  42 t-inv F
 -0.363636 -0.454545 -0.181818    0.00075131  42 t-inv F
  0.181818 -0.090909  0.363636    0.00075131  42 t-inv F
  0.181818 -0.272727 -0.181818    0.00075131  42 t-inv F
 -0.090909  0.181818  0.363636    0.00075131  42 t-inv F
 -0.272727  0.181818 -0.181818    0.00075131  42 t-inv F
 -0.454545 -0.363636 -0.181818    0.00075131  42 t-inv F
 -0.181818 -0.363636 -0.454545    0.00075131  42 t-inv F
  0.363636  0.181818 -0.090909    0.00075131  42 t-inv F
 -0.181818  0.181818 -0.272727    0.00075131  42 t-inv F
  0.363636 -0.090909  0.181818    0.00075131  42 t-inv F
 -0.181818 -0.272727  0.181818    0.00075131  42 t-inv F
 -0.181818 -0.454545 -0.363636    0.00075131  42 t-inv F
  0.454545  0.090909  0.272727    0.00075131  42 t-inv F
  0.272727  0.454545  0.090909    0.00075131  42 t-inv F
  0.090909  0.272727  0.454545    0.00075131  42 t-inv F
 -0.454545 -0.272727 -0.090909    0.00075131  42 t-inv F
 -0.090909 -0.454545 -0.272727    0.00075131  42 t-inv F
 -0.272727 -0.090909 -0.454545    0.00075131  42 t-inv F
  0.272727  0.181818 -0.181818    0.00075131  42 t-inv F
  0.454545  0.181818  0.363636    0.00075131  42 t-inv F
  0.090909 -0.363636 -0.181818    0.00075131  42 t-inv F
 -0.181818 -0.363636  0.090909    0.00075131  42 t-inv F
 -0.181818  0.181818  0.272727    0.00075131  42 t-inv F
  0.363636  0.181818  0.454545    0.00075131  42 t-inv F
  0.363636  0.454545  0.181818    0.00075131  42 t-inv F
 -0.181818  0.090909 -0.363636    0.00075131  42 t-inv F
 -0.181818  0.272727  0.181818    0.00075131  42 t-inv F
  0.090909 -0.181818 -0.363636    0.00075131  42 t-inv F
  0.272727 -0.181818  0.181818    0.00075131  42 t-inv F
  0.454545  0.363636  0.181818    0.00075131  42 t-inv F
  0.181818  0.363636  0.454545    0.00075131  42 t-inv F
 -0.363636 -0.181818  0.090909    0.00075131  42 t-inv F
  0.181818 -0.181818  0.272727    0.00075131  42 t-inv F
 -0.363636  0.090909 -0.181818    0.00075131  42 t-inv F
  0.181818  0.272727 -0.181818    0.00075131  42 t-inv F
  0.181818  0.454545  0.363636    0.00075131  42 t-inv F
 -0.454545 -0.090909 -0.272727    0.00075131  42 t-inv F
 -0.272727 -0.454545 -0.090909    0.00075131  42 t-inv F
 -0.090909 -0.272727 -0.454545    0.00075131  42 t-inv F
  0.090909 -0.454545  0.272727    0.00075131  43 t-inv F
  0.272727  0.090909 -0.454545    0.00075131  43 t-inv F
 -0.272727 -0.181818 -0.727273    0.00075131  43 t-inv F
  0.454545  0.727273  0.545455    0.00075131  43 t-inv F
 -0.090909 -0.545455  0.181818    0.00075131  43 t-inv F
  0.181818 -0.545455 -0.090909    0.00075131  43 t-inv F
 -0.727273 -0.181818 -0.272727    0.00075131  43 t-inv F
  0.545455  0.727273  0.454545    0.00075131  43 t-inv F
  0.545455  0.454545  0.727273    0.00075131  43 t-inv F
  0.181818 -0.090909 -0.545455    0.00075131  43 t-inv F
 -0.727273 -0.272727 -0.181818    0.00075131  43 t-inv F
 -0.090909  0.181818 -0.545455    0.00075131  43 t-inv F
 -0.272727 -0.727273 -0.181818    0.00075131  43 t-inv F
  0.454545  0.545455  0.727273    0.00075131  43 t-inv F
  0.727273  0.545455  0.454545    0.00075131  43 t-inv F
 -0.545455  0.181818 -0.090909    0.00075131  43 t-inv F
 -0.181818 -0.727273 -0.272727    0.00075131  43 t-inv F
 -0.545455 -0.090909  0.181818    0.00075131  43 t-inv F
 -0.181818 -0.272727 -0.727273    0.00075131  43 t-inv F
  0.727273  0.454545  0.545455    0.00075131  43 t-inv F
 -0.454545  0.090909  0.272727    0.00075131  43 t-inv F
  0.272727 -0.454545  0.090909    0.00075131  43 t-inv F
  0.090909  0.272727 -0.454545    0.00075131  43 t-inv F
  0.454545 -0.272727 -0.090909    0.00075131  43 t-inv F
 -0.090909  0.454545 -0.272727    0.00075131  43 t-inv F
 -0.272727 -0.090909  0.454545    0.00075131  43 t-inv F
  0.272727  0.181818  0.727273    0.00075131  43 t-inv F
 -0.454545 -0.727273 -0.545455    0.00075131  43 t-inv F
  0.090909  0.545455 -0.181818    0.00075131  43 t-inv F
 -0.181818  0.545455  0.090909    0.00075131  43 t-inv F
  0.727273  0.181818  0.272727    0.00075131  43 t-inv F
 -0.545455 -0.727273 -0.454545    0.00075131  43 t-inv F
 -0.545455 -0.454545 -0.727273    0.00075131  43 t-inv F
 -0.181818  0.090909  0.545455    0.00075131  43 t-inv F
  0.727273  0.272727  0.181818    0.00075131  43 t-inv F
  0.090909 -0.181818  0.545455    0.00075131  43 t-inv F
  0.272727  0.727273  0.181818    0.00075131  43 t-inv F
 -0.454545 -0.545455 -0.727273    0.00075131  43 t-inv F
 -0.727273 -0.545455 -0.454545    0.00075131  43 t-inv F
  0.545455 -0.181818  0.090909    0.00075131  43 t-inv F
  0.181818  0.727273  0.272727    0.00075131  43 t-inv F
  0.545455  0.090909 -0.181818    0.00075131  43 t-inv F
  0.181818  0.272727  0.727273    0.00075131  43 t-inv F
 -0.727273 -0.454545 -0.545455    0.00075131  43 t-inv F
  0.454545 -0.090909 -0.272727    0.00075131  43 t-inv F
 -0.272727  0.454545 -0.090909    0.00075131  43 t-inv F
 -0.090909 -0.272727  0.454545    0.00075131  43 t-inv F
  0.090909 -0.363636  0.272727    0.00075131  44 t-inv F
  0.272727  0.090909 -0.363636    0.00075131  44 t-inv F
 -0.272727 -0.181818 -0.636364    0.00075131  44 t-inv F
  0.363636  0.636364  0.454545    0.00075131  44 t-inv F
 -0.090909 -0.454545  0.181818    0.00075131  44 t-inv F
  0.181818 -0.454545 -0.090909    0.00075131  44 t-inv F
 -0.636364 -0.181818 -0.272727    0.00075131  44 t-inv F
  0.454545  0.636364  0.363636    0.00075131  44 t-inv F
  0.454545  0.363636  0.636364    0.00075131  44 t-inv F
  0.181818 -0.090909 -0.454545    0.00075131  44 t-inv F
 -0.636364 -0.272727 -0.181818    0.00075131  44 t-inv F
 -0.090909  0.181818 -0.454545    0.00075131  44 t-inv F
 -0.272727 -0.636364 -0.181818    0.00075131  44 t-inv F
  0.363636  0.454545  0.636364    0.00075131  44 t-inv F
  0.636364  0.454545  0.363636    0.00075131  44 t-inv F
 -0.454545  0.181818 -0.090909    0.00075131  44 t-inv F
 -0.181818 -0.636364 -0.272727    0.00075131  44 t-inv F
 -0.454545 -0.090909  0.181818    0.00075131  44 t-inv F
 -0.181818 -0.272727 -0.636364    0.00075131  44 t-inv F
  0.636364  0.363636  0.454545    0.00075131  44 t-inv F
 -0.363636  0.090909  0.272727    0.00075131  44 t-inv F
  0.272727 -0.363636  0.090909    0.00075131  44 t-inv F
  0.090909  0.272727 -0.363636    0.00075131  44 t-inv F
  0.363636 -0.272727 -0.090909    0.00075131  44 t-inv F
 -0.090909  0.363636 -0.272727    0.00075131  44 t-inv F
 -0.272727 -0.090909  0.363636    0.00075131  44 t-inv F
  0.272727  0.181818  0.636364    0.00075131  44 t-inv F
 -0.363636 -0.636364 -0.454545    0.00075131  44 t-inv F
  0.090909  0.454545 -0.181818    0.00075131  44 t-inv F
 -0.181818  0.454545  0.090909    0.00075131  44 t-inv F
  0.636364  0.181818  0.272727    0.00075131  44 t-inv F
 -0.454545 -0.636364 -0.363636    0.00075131  44 t-inv F
 -0.454545 -0.363636 -0.636364    0.00075131  44 t-inv F
 -0.181818  0.090909  0.454545    0.00075131  44 t-inv F
  0.636364  0.272727  0.181818    0.00075131  44 t-inv F
  0.090909 -0.181818  0.454545    0.00075131  44 t-inv F
  0.272727  0.636364  0.181818    0.00075131  44 t-inv F
 -0.363636 -0.454545 -0.636364    0.00075131  44 t-inv F
 -0.636364 -0.454545 -0.363636    0.00075131  44 t-inv F
  0.454545 -0.181818  0.090909    0.00075131  44 t-inv F
  0.181818  0.636364  0.272727    0.00075131  44 t-inv F
  0.454545  0.090909 -0.181818    0.00075131  44 t-inv F
  0.181818  0.272727  0.636364    0.00075131  44 t-inv F
 -0.636364 -0.363636 -0.454545    0.00075131  44 t-inv F
  0.363636 -0.090909 -0.272727    0.00075131  44 t-inv F
 -0.272727  0.363636 -0.090909    0.00075131  44 t-inv F
 -0.090909 -0.272727  0.363636    0.00075131  44 t-inv F
  0.090909 -0.272727  0.272727    0.00075131  45 t-inv F
  0.272727  0.090909 -0.272727    0.00075131  45 t-inv F
 -0.272727 -0.181818 -0.545455    0.00075131  45 t-inv F
  0.272727  0.545455  0.363636    0.00075131  45 t-inv F
 -0.090909 -0.363636  0.181818    0.00075131  45 t-inv F
  0.181818 -0.363636 -0.090909    0.00075131  45 t-inv F
 -0.545455 -0.181818 -0.272727    0.00075131  45 t-inv F
  0.363636  0.545455  0.272727    0.00075131  45 t-inv F
  0.363636  0.272727  0.545455    0.00075131  45 t-inv F
  0.181818 -0.090909 -0.363636    0.00075131  45 t-inv F
 -0.545455 -0.272727 -0.181818    0.00075131  45 t-inv F
 -0.090909  0.181818 -0.363636    0.00075131  45 t-inv F
 -0.272727 -0.545455 -0.181818    0.00075131  45 t-inv F
  0.272727  0.363636  0.545455    0.00075131  45 t-inv F
  0.545455  0.363636  0.272727    0.00075131  45 t-inv F
 -0.363636  0.181818 -0.090909    0.00075131  45 t-inv F
 -0.181818 -0.545455 -0.272727    0.00075131  45 t-inv F
 -0.363636 -0.090909  0.181818    0.00075131  45 t-inv F
 -0.181818 -0.272727 -0.545455    0.00075131  45 t-inv F
  0.545455  0.272727  0.363636    0.00075131  45 t-inv F
 -0.272727  0.090909  0.272727    0.00075131  45 t-inv F
  0.272727 -0.272727  0.090909    0.00075131  45 t-inv F
  0.090909  0.272727 -0.272727    0.00075131  45 t-inv F
  0.272727 -0.272727 -0.090909    0.00075131  45 t-inv F
 -0.090909  0.272727 -0.272727    0.00075131  45 t-inv F
 -0.272727 -0.090909  0.272727    0.00075131  45 t-inv F
  0.272727  0.181818  0.545455    0.00075131  45 t-inv F
 -0.272727 -0.545455 -0.363636    0.00075131  45 t-inv F
  0.090909  0.363636 -0.181818    0.00075131  45 t-inv F
 -0.181818  0.363636  0.090909    0.00075131  45 t-inv F
  0.545455  0.181818  0.272727    0.00075131  45 t-inv F
 -0.363636 -0.545455 -0.272727    0.00075131  45 t-inv F
 -0.363636 -0.272727 -0.545455    0.00075131  45 t-inv F
 -0.181818  0.090909  0.363636    0.00075131  45 t-inv F
  0.545455  0.272727  0.181818    0.00075131  45 t-inv F
  0.090909 -0.181818  0.363636    0.00075131  45 t-inv F
  0.272727  0.545455  0.181818    0.00075131  45 t-inv F
 -0.272727 -0.363636 -0.545455    0.00075131  45 t-inv F
 -0.545455 -0.363636 -0.272727    0.00075131  45 t-inv F
  0.363636 -0.181818  0.090909    0.00075131  45 t-inv F
  0.181818  0.545455  0.272727    0.00075131  45 t-inv F
  0.363636  0.090909 -0.181818    0.00075131  45 t-inv F
  0.181818  0.272727  0.545455    0.00075131  45 t-inv F
 -0.545455 -0.272727 -0.363636    0.00075131  45 t-inv F
  0.272727 -0.090909 -0.272727    0.00075131  45 t-inv F
 -0.272727  0.272727 -0.090909    0.00075131  45 t-inv F
 -0.090909 -0.272727  0.272727    0.00075131  45 t-inv F
  0.090909 -0.181818  0.272727    0.00075131  46 t-inv F
  0.272727  0.090909 -0.181818    0.00075131  46 t-inv F
 -0.272727 -0.181818 -0.454545    0.00075131  46 t-inv F
  0.181818  0.454545  0.272727    0.00075131  46 t-inv F
 -0.090909 -0.272727  0.181818    0.00075131  46 t-inv F
  0.181818 -0.272727 -0.090909    0.00075131  46 t-inv F
 -0.454545 -0.181818 -0.272727    0.00075131  46 t-inv F
  0.272727  0.454545  0.181818    0.00075131  46 t-inv F
  0.272727  0.181818  0.454545    0.00075131  46 t-inv F
  0.181818 -0.090909 -0.272727    0.00075131  46 t-inv F
 -0.454545 -0.272727 -0.181818    0.00075131  46 t-inv F
 -0.090909  0.181818 -0.272727    0.00075131  46 t-inv F
 -0.272727 -0.454545 -0.181818    0.00075131  46 t-inv F
  0.181818  0.272727  0.454545    0.00075131  46 t-inv F
  0.454545  0.272727  0.181818    0.00075131  46 t-inv F
 -0.272727  0.181818 -0.090909    0.00075131  46 t-inv F
 -0.181818 -0.454545 -0.272727    0.00075131  46 t-inv F
 -0.272727 -0.090909  0.181818    0.00075131  46 t-inv F
 -0.181818 -0.272727 -0.454545    0.00075131  46 t-inv F
  0.454545  0.181818  0.272727    0.00075131  46 t-inv F
 -0.181818  0.090909  0.272727    0.00075131  46 t-inv F
  0.272727 -0.181818  0.090909    0.00075131  46 t-inv F
  0.090909  0.272727 -0.181818    0.00075131  46 t-inv F
  0.090909  0.454545  0.363636    0.00075131  47 t-inv F
  0.363636  0.090909  0.454545    0.00075131  47 t-inv F
 -0.363636 -0.272727  0.090909    0.00075131  47 t-inv F
 -0.454545 -0.090909 -0.363636    0.00075131  47 t-inv F
 -0.090909  0.363636  0.272727    0.00075131  47 t-inv F
  0.272727  0.363636 -0.090909    0.00075131  47 t-inv F
  0.090909 -0.272727 -0.363636    0.00075131  47 t-inv F
 -0.363636 -0.090909 -0.454545    0.00075131  47 t-inv F
 -0.363636 -0.454545 -0.090909    0.00075131  47 t-inv F
  0.272727 -0.090909  0.363636    0.00075131  47 t-inv F
  0.090909 -0.363636 -0.272727    0.00075131  47 t-inv F
 -0.090909  0.272727  0.363636    0.00075131  47 t-inv F
 -0.363636  0.090909 -0.272727    0.00075131  47 t-inv F
 -0.454545 -0.363636 -0.090909    0.00075131  47 t-inv F
 -0.090909 -0.363636 -0.454545    0.00075131  47 t-inv F
  0.363636  0.272727 -0.090909    0.00075131  47 t-inv F
 -0.272727  0.090909 -0.363636    0.00075131  47 t-inv F
  0.363636 -0.090909  0.272727    0.00075131  47 t-inv F
 -0.272727 -0.363636  0.090909    0.00075131  47 t-inv F
 -0.090909 -0.454545 -0.363636    0.00075131  47 t-inv F
  0.454545  0.090909  0.363636    0.00075131  47 t-inv F
  0.363636  0.454545  0.090909    0.00075131  47 t-inv F
  0.090909  0.363636  0.454545    0.00075131  47 t-inv F
  0.090909 -0.454545  0.363636    0.00075131  48 t-inv F
  0.363636  0.090909 -0.454545    0.00075131  48 t-inv F
 -0.363636 -0.272727 -0.818182    0.00075131  48 t-inv F
  0.454545  0.818182  0.545455    0.00075131  48 t-inv F
 -0.090909 -0.545455  0.272727    0.00075131  48 t-inv F
  0.272727 -0.545455 -0.090909    0.00075131  48 t-inv F
 -0.818182 -0.272727 -0.363636    0.00075131  48 t-inv F
  0.545455  0.818182  0.454545    0.00075131  48 t-inv F
  0.545455  0.454545  0.818182    0.00075131  48 t-inv F
  0.272727 -0.090909 -0.545455    0.00075131  48 t-inv F
 -0.818182 -0.363636 -0.272727    0.00075131  48 t-inv F
 -0.090909  0.272727 -0.545455    0.00075131  48 t-inv F
 -0.363636 -0.818182 -0.272727    0.00075131  48 t-inv F
  0.454545  0.545455  0.818182    0.00075131  48 t-inv F
  0.818182  0.545455  0.454545    0.00075131  48 t-inv F
 -0.545455  0.272727 -0.090909    0.00075131  48 t-inv F
 -0.272727 -0.818182 -0.363636    0.00075131  48 t-inv F
 -0.545455 -0.090909  0.272727    0.00075131  48 t-inv F
 -0.272727 -0.363636 -0.818182    0.00075131  48 t-inv F
  0.818182  0.454545  0.545455    0.00075131  48 t-inv F
 -0.454545  0.090909  0.363636    0.00075131  48 t-inv F
  0.363636 -0.454545  0.090909    0.00075131  48 t-inv F
  0.090909  0.363636 -0.454545    0.00075131  48 t-inv F
  0.454545 -0.363636 -0.090909    0.00075131  48 t-inv F
 -0.090909  0.454545 -0.363636    0.00075131  48 t-inv F
 -0.363636 -0.090909  0.454545    0.00075131  48 t-inv F
  0.363636  0.272727  0.818182    0.00075131  48 t-inv F
[...]
 XX        1674.5786    704.7390    704.7390     -0.0000      0.0000      0.0000
 YY         704.7390   1674.5786    704.7390     -0.0000      0.0000      0.0000
 ZZ         704.7390    704.7390   1674.5786     -0.0000     -0.0000      0.0000
 XY          -0.0000     -0.0000     -0.0000   1122.6622      0.0000     -0.0000
 YZ           0.0000      0.0000     -0.0000      0.0000   1122.6622     -0.0000
 ZX           0.0000      0.0000      0.0000     -0.0000     -0.0000   1122.6622
 --------------------------------------------------------------------------------

 INTERNAL STRAIN TENSORS FROM STRAINED CELLS
 ============================================

 INTERNAL STRAIN TENSOR FOR ION    1 for displacements in x,y,z  (eV/Angst):
          X           Y           Z          XY          YZ          ZX
  --------------------------------------------------------------------------------
  x    -0.00000     0.00000     0.00000    -0.00000    10.98114    -0.00000
  y    -0.00000     0.00000     0.00000    -0.00000     0.00000    10.97928
  z    -0.00000     0.00000     0.00000    10.98039    -0.00000    -0.00000

 INTERNAL STRAIN TENSOR FOR ION    2 for displacements in x,y,z  (eV/Angst):
          X           Y           Z          XY          YZ          ZX
  --------------------------------------------------------------------------------
  x     0.00000    -0.00000    -0.00000     0.00000   -10.98114     0.00000
  y     0.00000    -0.00000    -0.00000     0.00000    -0.00000   -10.97928
  z     0.00000    -0.00000    -0.00000   -10.98039     0.00000     0.00000
 
 INTERNAL STRAIN TENSORS FROM DISPLACED ATOMS
 ============================================

 INTERNAL STRAIN TENSOR FOR ION    1 for displacements in x,y,z  (eV/Angst):
          X           Y           Z          XY          YZ          ZX
  --------------------------------------------------------------------------------
  x     0.00000     0.00000    -0.00000     0.00000    10.97416    -0.00000
  y     0.00000     0.00000     0.00000     0.00000    -0.00000    10.97416
  z    -0.00000    -0.00000     0.00000    10.97416     0.00000    -0.00000

 INTERNAL STRAIN TENSOR FOR ION    2 for displacements in x,y,z  (eV/Angst):
          X           Y           Z          XY          YZ          ZX
  --------------------------------------------------------------------------------
  x    -0.00000    -0.00000     0.00000    -0.00000   -10.97416     0.00000
  y    -0.00000    -0.00000    -0.00000    -0.00000     0.00000   -10.97416
  z     0.00000     0.00000    -0.00000   -10.97416    -0.00000     0.00000


--------------------------------------------------------------------------------------------------------


 
 Eigenvectors and eigenvalues of the dynamical matrix
 ----------------------------------------------------
 
 
   1 f  =   15.729112 THz    98.828925 2PiTHz  524.666683 cm-1    65.050401 meV
             X         Y         Z           dx          dy          dz
      0.000000  0.000000  0.000000     0.000000    0.000000    0.707107  
      1.347340  1.347340  1.347340    -0.000000    0.000000   -0.707107  
 
   2 f  =   15.729112 THz    98.828925 2PiTHz  524.666683 cm-1    65.050401 meV
             X         Y         Z           dx          dy          dz
      0.000000  0.000000  0.000000     0.707107   -0.000000   -0.000000  
      1.347340  1.347340  1.347340    -0.707107    0.000000    0.000000  
 
   3 f  =   15.729112 THz    98.828925 2PiTHz  524.666683 cm-1    65.050401 meV
             X         Y         Z           dx          dy          dz
      0.000000  0.000000  0.000000     0.000000    0.707107    0.000000  
      1.347340  1.347340  1.347340    -0.000000   -0.707107    0.000000  
 
   4 f  =    0.000000 THz     0.000001 2PiTHz    0.000005 cm-1     0.000001 meV
             X         Y         Z           dx          dy          dz
      0.000000  0.000000  0.000000     0.707107   -0.000000    0.000000  
      1.347340  1.347340  1.347340     0.707107   -0.000000    0.000000  
 
   5 f  =    0.000000 THz     0.000000 2PiTHz    0.000000 cm-1     0.000000 meV
             X         Y         Z           dx          dy          dz
      0.000000  0.000000  0.000000    -0.000000    0.707107    0.000000  
      1.347340  1.347340  1.347340     0.000000    0.707107    0.000000  
 
   6 f  =    0.000000 THz     0.000000 2PiTHz    0.000000 cm-1     0.000000 meV
             X         Y         Z           dx          dy          dz
      0.000000  0.000000  0.000000     0.000000    0.000000    0.707107  
      1.347340  1.347340  1.347340    -0.000000    0.000000    0.707107  
 


--------------------------------------------------------------------------------------------------------



 ELASTIC MODULI CONTR FROM IONIC RELAXATION (kBar)
 Direction    XX          YY          ZZ          XY          YZ          ZX
 --------------------------------------------------------------------------------
 XX          -0.0000     -0.0000     -0.0000      0.0000     -0.0000     -0.0000
 YY          -0.0000     -0.0000      0.0000      0.0000     -0.0000     -0.0000
 ZZ          -0.0000      0.0000     -0.0000     -0.0000      0.0000     -0.0000
 XY           0.0000      0.0000     -0.0000   -346.8568     -0.0000      0.0000
 YZ          -0.0000     -0.0000      0.0000     -0.0000   -346.8568      0.0000
 ZX          -0.0000     -0.0000     -0.0000      0.0000      0.0000   -346.8568
 --------------------------------------------------------------------------------


 TOTAL ELASTIC MODULI (kBar)
 Direction    XX          YY          ZZ          XY          YZ          ZX
 --------------------------------------------------------------------------------
 XX        1674.5786    704.7390    704.7390     -0.0000      0.0000      0.0000
 YY         704.7390   1674.5786    704.7390     -0.0000      0.0000      0.0000
 ZZ         704.7390    704.7390   1674.5786     -0.0000     -0.0000      0.0000
 XY          -0.0000     -0.0000     -0.0000    775.8054      0.0000     -0.0000
 YZ           0.0000      0.0000     -0.0000      0.0000    775.8054     -0.0000
 ZX           0.0000      0.0000      0.0000     -0.0000     -0.0000    775.8054
 --------------------------------------------------------------------------------



--------------------------------------------------------------------------------------------------------


  LATTYP: Found a face centered cubic cell.
 ALAT       =     5.3893600000
  
  Lattice vectors:
  
 A1 = (   2.6946800000,   2.6946800000,   0.0000000000)
 A2 = (   0.0000000000,   2.6946800000,   2.6946800000)
 A3 = (   2.6946800000,   0.0000000000,   2.6946800000)


Analysis of symmetry for initial positions (statically):
=====================================================================
 Subroutine PRICEL returns:
 Original cell was already a primitive cell.
 

 Routine SETGRP: Setting up the symmetry group for a 
 face centered cubic supercell.


 Subroutine GETGRP returns: Found 48 space group operations
 (whereof 24 operations were pure point group operations)
 out of a pool of 48 trial point group operations.


The static configuration has the point symmetry T_d .
 The point group associated with its full space group is O_h .


Analysis of symmetry for dynamics (positions and initial velocities):
=====================================================================
 Subroutine PRICEL returns:
 Original cell was already a primitive cell.
 

 Routine SETGRP: Setting up the symmetry group for a 
 face centered cubic supercell.


 Subroutine GETGRP returns: Found 48 space group operations
 (whereof 24 operations were pure point group operations)
 out of a pool of 48 trial point group operations.


The dynamic configuration has the point symmetry T_d .
 The point group associated with its full space group is O_h .


 Subroutine INISYM returns: Found 48 space group operations
 (whereof 24 operations are pure point group operations),
 and found     1 'primitive' translations

 
 KPOINTS: Automatic mesh                          

Automatic generation of k-mesh.
Space group operators:
 irot       det(A)        alpha          n_x          n_y          n_z        tau_x        tau_y        tau_z
    1     1.000000     0.000000     1.000000     0.000000     0.000000     0.000000     0.000000     0.000000
    2     1.000000   120.000000    -0.577350    -0.577350    -0.577350     0.000000     0.000000     0.000000
    3     1.000000   120.000000     0.577350     0.577350     0.577350     0.000000     0.000000     0.000000
    4    -1.000000    90.000000    -0.000000    -1.000000     0.000000     0.000000     0.000000     0.000000
    5    -1.000000   180.000000     0.707107     0.707107     0.000000     0.000000     0.000000     0.000000
    6    -1.000000    90.000000     1.000000     0.000000     0.000000     0.000000     0.000000     0.000000
    7     1.000000   180.000000     0.000000     1.000000    -0.000000     0.000000     0.000000     0.000000
    8     1.000000   120.000000     0.577350     0.577350    -0.577350     0.000000     0.000000     0.000000
    9     1.000000   120.000000     0.577350    -0.577350    -0.577350     0.000000     0.000000     0.000000
   10    -1.000000    90.000000    -0.000000     1.000000     0.000000     0.000000     0.000000     0.000000
   11    -1.000000    90.000000    -0.000000     0.000000    -1.000000     0.000000     0.000000     0.000000
   12    -1.000000   180.000000     0.000000    -0.707107    -0.707107     0.000000     0.000000     0.000000
   13     1.000000   120.000000    -0.577350     0.577350     0.577350     0.000000     0.000000     0.000000
   14     1.000000   120.000000    -0.577350     0.577350    -0.577350     0.000000     0.000000     0.000000
   15     1.000000   180.000000     0.000000    -0.000000    -1.000000     0.000000     0.000000     0.000000
   16    -1.000000    90.000000    -1.000000     0.000000     0.000000     0.000000     0.000000     0.000000
   17    -1.000000   180.000000     0.707107     0.000000     0.707107     0.000000     0.000000     0.000000
   18    -1.000000    90.000000     0.000000    -0.000000     1.000000     0.000000     0.000000     0.000000
   19     1.000000   120.000000    -0.577350    -0.577350     0.577350     0.000000     0.000000     0.000000
   20     1.000000   180.000000     1.000000     0.000000     0.000000     0.000000     0.000000     0.000000
   21     1.000000   120.000000     0.577350    -0.577350     0.577350     0.000000     0.000000     0.000000
   22    -1.000000   180.000000     0.707107    -0.707107    -0.000000     0.000000     0.000000     0.000000
   23    -1.000000   180.000000     0.707107     0.000000    -0.707107     0.000000     0.000000     0.000000
   24    -1.000000   180.000000     0.000000    -0.707107     0.707107     0.000000     0.000000     0.000000
   25    -1.000000     0.000000     1.000000     0.000000     0.000000     0.250000     0.250000     0.250000
   26    -1.000000   120.000000    -0.577350    -0.577350    -0.577350     0.250000     0.250000     0.250000
   27    -1.000000   120.000000     0.577350     0.577350     0.577350     0.250000     0.250000     0.250000
   28     1.000000    90.000000    -0.000000    -1.000000     0.000000     0.250000     0.250000     0.250000
   29     1.000000   180.000000     0.707107     0.707107     0.000000     0.250000     0.250000     0.250000
   30     1.000000    90.000000     1.000000     0.000000     0.000000     0.250000     0.250000     0.250000
   31    -1.000000   180.000000     0.000000     1.000000    -0.000000     0.250000     0.250000     0.250000
   32    -1.000000   120.000000     0.577350     0.577350    -0.577350     0.250000     0.250000     0.250000
   33    -1.000000   120.000000     0.577350    -0.577350    -0.577350     0.250000     0.250000     0.250000
   34     1.000000    90.000000    -0.000000     1.000000     0.000000     0.250000     0.250000     0.250000
   35     1.000000    90.000000    -0.000000     0.000000    -1.000000     0.250000     0.250000     0.250000
   36     1.000000   180.000000     0.000000    -0.707107    -0.707107     0.250000     0.250000     0.250000
   37    -1.000000   120.000000    -0.577350     0.577350     0.577350     0.250000     0.250000     0.250000
   38    -1.000000   120.000000    -0.577350     0.577350    -0.577350     0.250000     0.250000     0.250000
   39    -1.000000   180.000000     0.000000    -0.000000    -1.000000     0.250000     0.250000     0.250000
   40     1.000000    90.000000    -1.000000     0.000000     0.000000     0.250000     0.250000     0.250000
   41     1.000000   180.000000     0.707107     0.000000     0.707107     0.250000     0.250000     0.250000
   42     1.000000    90.000000     0.000000    -0.000000     1.000000     0.250000     0.250000     0.250000
   43    -1.000000   120.000000    -0.577350    -0.577350     0.577350     0.250000     0.250000     0.250000
   44    -1.000000   180.000000     1.000000     0.000000     0.000000     0.250000     0.250000     0.250000
   45    -1.000000   120.000000     0.577350    -0.577350     0.577350     0.250000     0.250000     0.250000
   46     1.000000   180.000000     0.707107    -0.707107    -0.000000     0.250000     0.250000     0.250000
   47     1.000000   180.000000     0.707107     0.000000    -0.707107     0.250000     0.250000     0.250000
   48     1.000000   180.000000     0.000000    -0.707107     0.707107     0.250000     0.250000     0.250000
 
 Subroutine IBZKPT returns following result:
 ===========================================
 
 Found     56 irreducible k-points:
 
 Following reciprocal coordinates:
            Coordinates               Weight
  0.000000  0.000000  0.000000      1.000000
  0.090909 -0.000000 -0.000000      8.000000
  0.181818 -0.000000 -0.000000      8.000000
  0.272727  0.000000  0.000000      8.000000
  0.363636 -0.000000 -0.000000      8.000000
  0.454545 -0.000000 -0.000000      8.000000
  0.090909  0.090909  0.000000      6.000000
  0.181818  0.090909  0.000000     24.000000
  0.272727  0.090909 -0.000000     24.000000
  0.363636  0.090909  0.000000     24.000000
  0.454545  0.090909 -0.000000     24.000000
 -0.454545  0.090909 -0.000000     24.000000
 -0.363636  0.090909 -0.000000     24.000000
 -0.272727  0.090909  0.000000     24.000000
 -0.181818  0.090909 -0.000000     24.000000
 -0.090909  0.090909 -0.000000     12.000000
  0.181818  0.181818  0.000000      6.000000
  0.272727  0.181818  0.000000     24.000000
  0.363636  0.181818  0.000000     24.000000
  0.454545  0.181818  0.000000     24.000000
 -0.454545  0.181818 -0.000000     24.000000
 -0.363636  0.181818 -0.000000     24.000000
 -0.272727  0.181818 -0.000000     24.000000
 -0.181818  0.181818 -0.000000     12.000000
  0.272727  0.272727  0.000000      6.000000
  0.363636  0.272727  0.000000     24.000000
  0.454545  0.272727  0.000000     24.000000
 -0.454545  0.272727  0.000000     24.000000
 -0.363636  0.272727  0.000000     24.000000
 -0.272727  0.272727  0.000000     12.000000
  0.363636  0.363636  0.000000      6.000000
  0.454545  0.363636  0.000000     24.000000
 -0.454545  0.363636  0.000000     24.000000
 -0.363636  0.363636 -0.000000     12.000000
  0.454545  0.454545  0.000000      6.000000
 -0.454545  0.454545  0.000000     12.000000
  0.272727  0.181818  0.090909     24.000000
  0.363636  0.181818  0.090909     48.000000
  0.454545  0.181818  0.090909     48.000000
 -0.454545  0.181818  0.090909     48.000000
  0.363636  0.272727  0.090909     24.000000
  0.454545  0.272727  0.090909     48.000000
 -0.454545  0.272727  0.090909     48.000000
 -0.363636  0.272727  0.090909     48.000000
 -0.272727  0.272727  0.090909     48.000000
 -0.181818  0.272727  0.090909     24.000000
  0.454545  0.363636  0.090909     24.000000
 -0.454545  0.363636  0.090909     48.000000
 -0.363636  0.363636  0.090909     48.000000
 -0.272727  0.363636  0.090909     24.000000
 -0.454545  0.454545  0.090909     24.000000
 -0.363636  0.454545  0.090909     24.000000
 -0.454545  0.363636  0.181818     24.000000
 -0.363636  0.363636  0.181818     48.000000
 -0.363636  0.454545  0.181818     24.000000
 -0.272727  0.454545  0.181818     24.000000
 
 Following cartesian coordinates:
            Coordinates               Weight
  0.000000  0.000000  0.000000      1.000000
  0.016868  0.016868 -0.016868      8.000000
  0.033737  0.033737 -0.033737      8.000000
  0.050605  0.050605 -0.050605      8.000000
  0.067473  0.067473 -0.067473      8.000000
  0.084341  0.084341 -0.084341      8.000000
  0.000000  0.033737  0.000000      6.000000
  0.016868  0.050605 -0.016868     24.000000
  0.033737  0.067473 -0.033737     24.000000
  0.050605  0.084341 -0.050605     24.000000
  0.067473  0.101210 -0.067473     24.000000
 -0.101210 -0.067473  0.101210     24.000000
 -0.084341 -0.050605  0.084341     24.000000
 -0.067473 -0.033737  0.067473     24.000000
 -0.050605 -0.016868  0.050605     24.000000
 -0.033737  0.000000  0.033737     12.000000
  0.000000  0.067473  0.000000      6.000000
  0.016868  0.084341 -0.016868     24.000000
  0.033737  0.101210 -0.033737     24.000000
  0.050605  0.118078 -0.050605     24.000000
 -0.118078 -0.050605  0.118078     24.000000
 -0.101210 -0.033737  0.101210     24.000000
 -0.084341 -0.016868  0.084341     24.000000
 -0.067473  0.000000  0.067473     12.000000
  0.000000  0.101210  0.000000      6.000000
  0.016868  0.118078 -0.016868     24.000000
  0.033737  0.134946 -0.033737     24.000000
 -0.134946 -0.033737  0.134946     24.000000
 -0.118078 -0.016868  0.118078     24.000000
 -0.101210  0.000000  0.101210     12.000000
  0.000000  0.134946  0.000000      6.000000
  0.016868  0.151814 -0.016868     24.000000
 -0.151814 -0.016868  0.151814     24.000000
 -0.134946  0.000000  0.134946     12.000000
  0.000000  0.168683  0.000000      6.000000
 -0.168683 -0.000000  0.168683     12.000000
  0.033737  0.067473  0.000000     24.000000
  0.050605  0.084341 -0.016868     48.000000
  0.067473  0.101210 -0.033737     48.000000
 -0.101210 -0.067473  0.134946     48.000000
  0.033737  0.101210  0.000000     24.000000
  0.050605  0.118078 -0.016868     48.000000
 -0.118078 -0.050605  0.151814     48.000000
 -0.101210 -0.033737  0.134946     48.000000
 -0.084341 -0.016868  0.118078     48.000000
 -0.067473  0.000000  0.101210     24.000000
  0.033737  0.134946  0.000000     24.000000
 -0.134946 -0.033737  0.168683     48.000000
 -0.118078 -0.016868  0.151814     48.000000
 -0.101210  0.000000  0.134946     24.000000
 -0.151814 -0.016868  0.185551     24.000000
 -0.134946  0.000000  0.168683     24.000000
 -0.118078 -0.050605  0.185551     24.000000
 -0.101210 -0.033737  0.168683     48.000000
 -0.118078 -0.016868  0.185551     24.000000
 -0.101210  0.000000  0.168683     24.000000
 
 writing wavefunctions
     LOOP+:  cpu time    4.8153: real time    5.0384
    4ORBIT:  cpu time    0.0000: real time    0.0000

 total amount of memory used by VASP MPI-rank0    33970. kBytes
=======================================================================

   base      :      30000. kBytes
   nonl-proj :       2198. kBytes
   fftplans  :        304. kBytes
   grid      :        903. kBytes
   one-center:          6. kBytes
   wavefun   :        559. kBytes
 
  
  
 General timing and accounting informations for this job:
 ========================================================
  
                  Total CPU time used (sec):       89.795
                            User time (sec):       60.247
                          System time (sec):       29.549
                         Elapsed time (sec):       90.990
  
                   Maximum memory used (kb):       81612.
                   Average memory used (kb):           0.
  
                          Minor page faults:       776791
                          Major page faults:           20
                 Voluntary context switches:         1460
