    8    8    1    1
  0.2779555E+02  0.6058360E-09  0.6058360E-09  0.6058360E-09  0.5000000E-15
  1.000000000000000E-004
  CAR
 unknown system
     72     10     48

