 vasp.5.4.4.18Apr17-6-g9f103f2a35 (build Mar 30 2021 17:29:28) complex           
 executed on             LinuxGNU date 2021.03.31  17:11:03
 running on    6 total cores
 each image running on    2 cores
 distrk:  each k-point on    2 cores,    1 groups
 distr:  one band on NCORES_PER_BAND=   1 cores,    2 groups


--------------------------------------------------------------------------------------------------------


 INCAR:
 POTCAR:    PAW_PBE H 15Jun2001                   
 POTCAR:    PAW_PBE N 08Apr2002                   
 POTCAR:    PAW_PBE H 15Jun2001                   
   VRHFIN =H: ultrasoft test                                                    
   LEXCH  = PE                                                                  
   EATOM  =    12.4884 eV,    0.9179 Ry                                         
                                                                                
   TITEL  = PAW_PBE H 15Jun2001                                                 
   LULTRA =        F    use ultrasoft PP ?                                      
   IUNSCR =        0    unscreen: 0-lin 1-nonlin 2-no                           
   RPACOR =    0.000    partial core radius                                     
   POMASS =    1.000; ZVAL   =    1.000    mass and valenz                      
   RCORE  =    1.100    outmost cutoff radius                                   
   RWIGS  =    0.700; RWIGS  =    0.370    wigner-seitz radius (au A)           
   ENMAX  =  250.000; ENMIN  =  200.000 eV                                      
   RCLOC  =    0.701    cutoff for local pot                                    
   LCOR   =        T    correct aug charges                                     
   LPAW   =        T    paw PP                                                  
   EAUG   =  400.000                                                            
   RMAX   =    1.123    core radius for proj-oper                               
   RAUG   =    1.200    factor for augmentation sphere                          
   RDEP   =    1.112    radius for radial grids                                 
   RDEPT  =    0.926    core radius for aug-charge                              
                                                                                
   Atomic configuration                                                         
    2 entries                                                                   
     n  l   j            E        occ.                                          
     1  0  0.50        -6.4927   1.0000                                         
     2  1  0.50        -3.4015   0.0000                                         
   Description                                                                  
     l       E           TYP  RCUT    TYP  RCUT                                 
     0     -6.4927494     23  1.100                                             
     0      6.8029130     23  1.100                                             
     1     -4.0817478     23  1.100                                             
  local pseudopotential read in
  atomic valenz-charges read in
  non local Contribution for L=           0  read in
    real space projection operators read in
  non local Contribution for L=           0  read in
    real space projection operators read in
  non local Contribution for L=           1  read in
    real space projection operators read in
    PAW grid and wavefunctions read in

   number of l-projection  operators is LMAX  =           3
   number of lm-projection operators is LMMAX =           5

 POTCAR:    PAW_PBE N 08Apr2002                   
   VRHFIN =N: s2p3                                                              
   LEXCH  = PE                                                                  
   EATOM  =   264.5486 eV,   19.4438 Ry                                         
                                                                                
   TITEL  = PAW_PBE N 08Apr2002                                                 
   LULTRA =        F    use ultrasoft PP ?                                      
   IUNSCR =        1    unscreen: 0-lin 1-nonlin 2-no                           
   RPACOR =    1.200    partial core radius                                     
   POMASS =   14.001; ZVAL   =    5.000    mass and valenz                      
   RCORE  =    1.500    outmost cutoff radius                                   
   RWIGS  =    1.400; RWIGS  =    0.741    wigner-seitz radius (au A)           
   ENMAX  =  400.000; ENMIN  =  300.000 eV                                      
   ICORE  =        2    local potential                                         
   LCOR   =        T    correct aug charges                                     
   LPAW   =        T    paw PP                                                  
   EAUG   =  627.112                                                            
   DEXC   =    0.000                                                            
   RMAX   =    1.529    core radius for proj-oper                               
   RAUG   =    1.300    factor for augmentation sphere                          
   RDEP   =    1.514    radius for radial grids                                 
   RDEPT  =    1.338    core radius for aug-charge                              
                                                                                
   Atomic configuration                                                         
    4 entries                                                                   
     n  l   j            E        occ.                                          
     1  0  0.50      -384.7179   2.0000                                         
     2  0  0.50       -18.5828   2.0000                                         
     2  1  0.50        -7.0898   3.0000                                         
     3  2  1.50        -6.8029   0.0000                                         
   Description                                                                  
     l       E           TYP  RCUT    TYP  RCUT                                 
     0    -18.5828119     23  1.200                                             
     0    -13.5018863     23  1.200                                             
     1     -7.0897853     23  1.500                                             
     1      9.5240782     23  1.500                                             
     2     -6.8029130      7  1.500                                             
  local pseudopotential read in
  partial core-charges read in
  partial kinetic energy density read in
  atomic valenz-charges read in
  non local Contribution for L=           0  read in
    real space projection operators read in
  non local Contribution for L=           0  read in
    real space projection operators read in
  non local Contribution for L=           1  read in
    real space projection operators read in
  non local Contribution for L=           1  read in
    real space projection operators read in
    PAW grid and wavefunctions read in

   number of l-projection  operators is LMAX  =           4
   number of lm-projection operators is LMMAX =           8

  PAW_PBE H 15Jun2001                   :
 energy of atom  1       EATOM=  -12.4884
 kinetic energy error for atom=    0.0098 (will be added to EATOM!!)
  PAW_PBE N 08Apr2002                   :
 energy of atom  2       EATOM= -264.5486
 kinetic energy error for atom=    0.0736 (will be added to EATOM!!)


 POSCAR: # Compound: H3N. Old comment: H3N       
  positions in direct lattice
  No initial velocities read in
 exchange correlation table for  LEXCH =        8
   RHO(1)=    0.500       N(1)  =     2000
   RHO(2)=  100.500       N(2)  =     4000

 VTST: version 3.2, (02/03/18)

 CHAIN: initializing optimizer
 
 OPT: Using LBFGS optimizer
 OPT: LBFGS, Init
 OPT: LBFGS, MEMORY             20
 OPT: LBFGS, IMAGES              3
 OPT: LBFGS, MAXMOVE      0.200000
 OPT: LBFGS, LGLOBAL      T
 OPT: LBFGS, INVCURV      0.010000
 OPT: LBFGS, LLINEOPT      F
 OPT: LBFGS, FDSTEP       0.005000
 OPT: LBFGS, LAUTOSCALE      T
 OPT: LBFGS, DAMPING      2.000000
 
 CHAIN: Read ICHAIN            0
 CHAIN: Running the NEB
 NEB:          SPRING     -5.000000
 NEB:          LCLIMB      T
 NEB:     LTANGENTOLD      F
 NEB:           LDNEB      F
 NEB:        LDNEBORG      F
 NEB:        LNEBCELL      F
 NEB:          EFIRST      0.000000
 NEB:           ELAST      0.000000

 POSCAR: # Compound: H3N. Old comment: H3N       
  positions in direct lattice
  No initial velocities read in

 POSCAR: # Compound: H3N. Old comment: H3N       
  positions in direct lattice
  No initial velocities read in



--------------------------------------------------------------------------------------------------------


 ion  position               nearest neighbor table
   1  0.636  0.567  0.525-   4 0.97
   2  0.500  0.365  0.525-   4 0.97
   3  0.364  0.567  0.525-   4 0.97
   4  0.500  0.500  0.500-   1 0.97   3 0.97   2 0.97

  LATTYP: Found a simple orthorhombic cell.
 ALAT       =     6.0000000000
 B/A-ratio  =     1.1666666667
 C/A-ratio  =     1.3333333333
  
  Lattice vectors:
  
 A1 = (   6.0000000000,   0.0000000000,   0.0000000000)
 A2 = (   0.0000000000,   7.0000000000,   0.0000000000)
 A3 = (   0.0000000000,   0.0000000000,   8.0000000000)


Analysis of symmetry for initial positions (statically):
=====================================================================
 Subroutine PRICEL returns:
 Original cell was already a primitive cell.
 

 Routine SETGRP: Setting up the symmetry group for a 
 simple orthorhombic supercell.


 Subroutine GETGRP returns: Found  2 space group operations
 (whereof  2 operations were pure point group operations)
 out of a pool of  8 trial point group operations.


The static configuration has the point symmetry C_1h.


Analysis of symmetry for dynamics (positions and initial velocities):
=====================================================================
 Subroutine PRICEL returns:
 Original cell was already a primitive cell.
 

 Routine SETGRP: Setting up the symmetry group for a 
 simple orthorhombic supercell.


 Subroutine GETGRP returns: Found  2 space group operations
 (whereof  2 operations were pure point group operations)
 out of a pool of  8 trial point group operations.


The dynamic configuration has the point symmetry C_1h.


 Subroutine INISYM returns: Found  2 space group operations
 (whereof  2 operations are pure point group operations),
 and found     1 'primitive' translations



 KPOINTS: # No comment                            

Automatic generation of k-mesh.
Space group operators:
 irot       det(A)        alpha          n_x          n_y          n_z        tau_x        tau_y        tau_z
    1     1.000000     0.000000     1.000000     0.000000     0.000000     0.000000     0.000000     0.000000
    2    -1.000000   180.000000     1.000000     0.000000     0.000000     0.000000     0.000000     0.000000
 
 Subroutine IBZKPT returns following result:
 ===========================================
 
 Found      1 irreducible k-points:
 
 Following reciprocal coordinates:
            Coordinates               Weight
  0.000000  0.000000  0.000000      1.000000
 
 Following cartesian coordinates:
            Coordinates               Weight
  0.000000  0.000000  0.000000      1.000000
 


--------------------------------------------------------------------------------------------------------




 Dimension of arrays:
   k-points           NKPTS =      1   k-points in BZ     NKDIM =      1   number of bands    NBANDS=      8
   number of dos      NEDOS =    301   number of ions     NIONS =      4
   non local maximal  LDIM  =      4   non local SUM 2l+1 LMDIM =      8
   total plane-waves  NPLWV =  43200
   max r-space proj   IRMAX =      1   max aug-charges    IRDMAX=   1781
   dimension x,y,z NGX =    30 NGY =   36 NGZ =   40
   dimension x,y,z NGXF=    60 NGYF=   72 NGZF=   80
   support grid    NGXF=    60 NGYF=   72 NGZF=   80
   ions per type =               3   1
   NGX,Y,Z   is equivalent  to a cutoff of   8.31,  8.55,  8.31 a.u.
   NGXF,Y,Z  is equivalent  to a cutoff of  16.62, 17.10, 16.62 a.u.

 SYSTEM =  unknown system                          
 POSCAR =  # Compound: H3N. Old comment: H3N       

 Startparameter for this run:
   NWRITE =      2    write-flag & timer
   PREC   = normal    normal or accurate (medium, high low for compatibility)
   ISTART =      1    job   : 0-new  1-cont  2-samecut
   ICHARG =      0    charge: 1-file 2-atom 10-const
   ISPIN  =      1    spin polarized calculation?
   LNONCOLLINEAR =      F non collinear calculations
   LSORBIT =      F    spin-orbit coupling
   INIWAV =      1    electr: 0-lowe 1-rand  2-diag
   LASPH  =      F    aspherical Exc in radial PAW
   METAGGA=      F    non-selfconsistent MetaGGA calc.

 Electronic Relaxation 1
   ENCUT  =  400.0 eV  29.40 Ry    5.42 a.u.   9.78 11.42 13.05*2*pi/ulx,y,z
   ENINI  =  400.0     initial cutoff
   ENAUG  =  627.1 eV  augmentation charge cutoff
   NELM   =     60;   NELMIN=  2; NELMDL=  0     # of ELM steps 
   EDIFF  = 0.1E-05   stopping-criterion for ELM
   LREAL  =      F    real-space projection
   NLSPLINE    = F    spline interpolate recip. space projectors
   LCOMPAT=      F    compatible to vasp.4.4
   GGA_COMPAT  = T    GGA compatible to vasp.4.4-vasp.4.6
   LMAXPAW     = -100 max onsite density
   LMAXMIX     =    2 max onsite mixed and CHGCAR
   VOSKOWN=      0    Vosko Wilk Nusair interpolation
   ROPT   =    0.00000   0.00000
 Ionic relaxation
   EDIFFG = -.3E-01   stopping-criterion for IOM
   NSW    =     50    number of steps for IOM
   NBLOCK =      1;   KBLOCK =     50    inner block; outer block 
   IBRION =      3    ionic relax: 0-MD 1-quasi-New 2-CG
   NFREE  =      0    steps in history (QN), initial steepest desc. (CG)
   ISIF   =      2    stress and relaxation
   IWAVPR =     11    prediction:  0-non 1-charg 2-wave 3-comb
   ISYM   =      2    0-nonsym 1-usesym 2-fastsym
   LCORR  =      T    Harris-Foulkes like correction to forces

   POTIM  = 0.0000    time-step for ionic-motion
   TEIN   =    0.0    initial temperature
   TEBEG  =    0.0;   TEEND  =   0.0 temperature during run
   SMASS  =  -3.00    Nose mass-parameter (am)
   estimated Nose-frequenzy (Omega)   =  0.10E-29 period in steps =  0.00 mass=  -0.823E-27a.u.
   SCALEE = 1.0000    scale energy and forces
   NPACO  =    256;   APACO  = 16.0  distance and # of slots for P.C.
   PSTRESS=    0.0 pullay stress

  Mass of Ions in am
   POMASS =   1.00 14.00
  Ionic Valenz
   ZVAL   =   1.00  5.00
  Atomic Wigner-Seitz radii
   RWIGS  =  -1.00 -1.00
  virtual crystal weights 
   VCA    =   1.00  1.00
   NELECT =       8.0000    total number of electrons
   NUPDOWN=      -1.0000    fix difference up-down

 DOS related values:
   EMIN   =  10.00;   EMAX   =-10.00  energy-range for DOS
   EFERMI =   0.00
   ISMEAR =     1;   SIGMA  =   0.20  broadening in eV -4-tet -1-fermi 0-gaus

 Electronic relaxation 2 (details)
   IALGO  =     38    algorithm
   LDIAG  =      T    sub-space diagonalisation (order eigenvalues)
   LSUBROT=      F    optimize rotation matrix (better conditioning)
   TURBO    =      0    0=normal 1=particle mesh
   IRESTART =      0    0=no restart 2=restart with 2 vectors
   NREBOOT  =      0    no. of reboots
   NMIN     =      0    reboot dimension
   EREF     =   0.00    reference energy to select bands
   IMIX   =      4    mixing-type and parameters
     AMIX     =   0.40;   BMIX     =  1.00
     AMIX_MAG =   1.60;   BMIX_MAG =  1.00
     AMIN     =   0.10
     WC   =   100.;   INIMIX=   1;  MIXPRE=   1;  MAXMIX= -45

 Intra band minimization:
   WEIMIN = 0.0010     energy-eigenvalue tresh-hold
   EBREAK =  0.31E-07  absolut break condition
   DEPER  =   0.30     relativ break condition  

   TIME   =   0.40     timestep for ELM

  volume/ion in A,a.u.               =      84.00       566.86
  Fermi-wavevector in a.u.,A,eV,Ry     =   0.470968  0.890001  3.017925  0.221811
  Thomas-Fermi vector in A             =   1.463355

 Write flags
   LWAVE        =      T    write WAVECAR
   LDOWNSAMPLE  =      F    k-point downsampling of WAVECAR
   LCHARG       =      T    write CHGCAR
   LVTOT        =      F    write LOCPOT, total local potential
   LVHAR        =      F    write LOCPOT, Hartree potential only
   LELF         =      F    write electronic localiz. function (ELF)
   LORBIT       =      0    0 simple, 1 ext, 2 COOP (PROOUT), +10 PAW based schemes


 Dipole corrections
   LMONO  =      F    monopole corrections only (constant potential shift)
   LDIPOL =      F    correct potential (dipole corrections)
   IDIPOL =      0    1-x, 2-y, 3-z, 4-all directions 
   EPSILON=  1.0000000 bulk dielectric constant

 Exchange correlation treatment:
   GGA     =    --    GGA type
   LEXCH   =     8    internal setting for exchange type
   VOSKOWN=      0    Vosko Wilk Nusair interpolation
   LHFCALC =     F    Hartree Fock is set to
   LHFONE  =     F    Hartree Fock one center treatment
   AEXX    =    0.0000 exact exchange contribution

 Linear response parameters
   LEPSILON=     F    determine dielectric tensor
   LRPA    =     F    only Hartree local field effects (RPA)
   LNABLA  =     F    use nabla operator in PAW spheres
   LVEL    =     F    velocity operator in full k-point grid
   LINTERFAST=   F  fast interpolation
   KINTER  =     0    interpolate to denser k-point grid
   CSHIFT  =0.1000    complex shift for real part using Kramers Kronig
   OMEGAMAX=  -1.0    maximum frequency
   DEG_THRESHOLD= 0.2000000E-02 threshold for treating states as degnerate
   RTIME   =   -0.100 relaxation time in fs
  (WPLASMAI=    0.000 imaginary part of plasma frequency in eV, 0.658/RTIME)
   DFIELD  = 0.0000000 0.0000000 0.0000000 field for delta impulse in time

 Orbital magnetization related:
   ORBITALMAG=     F  switch on orbital magnetization
   LCHIMAG   =     F  perturbation theory with respect to B field
   DQ        =  0.001000  dq finite difference perturbation B field
   LLRAUG    =     F  two centre corrections for induced B field



--------------------------------------------------------------------------------------------------------


 quickmin algorithm: (dynamic with friction)
 charge density and potential will be updated during run
 non-spin polarized calculation
 Variant of blocked Davidson
 Davidson routine will perform the subspace rotation
 perform sub-space diagonalisation
    after iterative eigenvector-optimisation
 modified Broyden-mixing scheme, WC =      100.0
 initial mixing is a Kerker type mixing with AMIX =  0.4000 and BMIX =      1.0000
 Hartree-type preconditioning will be used
 using additional bands            4
 reciprocal scheme for non local part
 use partial core corrections
 calculate Harris-corrections to forces   (improved forces if not selfconsistent)
 use gradient corrections 
 use of overlap-Matrix (Vanderbilt PP)
 Methfessel and Paxton  Order N= 1 SIGMA  =   0.20


--------------------------------------------------------------------------------------------------------


  energy-cutoff  :      400.00
  volume of cell :      336.00
      direct lattice vectors                 reciprocal lattice vectors
     6.000000000  0.000000000  0.000000000     0.166666667  0.000000000  0.000000000
     0.000000000  7.000000000  0.000000000     0.000000000  0.142857143  0.000000000
     0.000000000  0.000000000  8.000000000     0.000000000  0.000000000  0.125000000

  length of vectors
     6.000000000  7.000000000  8.000000000     0.166666667  0.142857143  0.125000000



 old parameters found on file WAVECAR:
  energy-cutoff  :      400.00
  volume of cell :      336.00
      direct lattice vectors                 reciprocal lattice vectors
     6.000000000  0.000000000  0.000000000     0.166666667  0.000000000  0.000000000
     0.000000000  7.000000000  0.000000000     0.000000000  0.142857143  0.000000000
     0.000000000  0.000000000  8.000000000     0.000000000  0.000000000  0.125000000

  length of vectors


 k-points in units of 2pi/SCALE and weight: # No comment                            
   0.00000000  0.00000000  0.00000000       1.000

 k-points in reciprocal lattice and weights: # No comment                            
   0.00000000  0.00000000  0.00000000       1.000

 position of ions in fractional coordinates (direct lattice) 
   0.63642800  0.56745700  0.52458225
   0.50000000  0.36498500  0.52456650
   0.36357200  0.56745700  0.52458225
   0.50000000  0.50000000  0.50000000

 position of ions in cartesian coordinates  (Angst):
   3.81856800  3.97219900  4.19665800
   3.00000000  2.55489500  4.19653200
   2.18143200  3.97219900  4.19665800
   3.00000000  3.50000000  4.00000000



--------------------------------------------------------------------------------------------------------


 k-point  1 :   0.0000 0.0000 0.0000  plane waves:    6075

 maximum and minimum number of plane-waves per node :      6075     6075

 maximum number of plane-waves:      6075
 maximum index in each direction: 
   IXMAX=    9   IYMAX=   11   IZMAX=   13
   IXMIN=   -9   IYMIN=  -11   IZMIN=  -13


 serial   3D FFT for wavefunctions
 parallel 3D FFT for charge:
    minimum data exchange during FFTs selected (reduces bandwidth)


 total amount of memory used by VASP MPI-rank0    49277. kBytes
=======================================================================

   base      :      30000. kBytes
   nonl-proj :       1166. kBytes
   fftplans  :       6115. kBytes
   grid      :      11594. kBytes
   one-center:         12. kBytes
   wavefun   :        390. kBytes

     INWAV:  cpu time    0.0000: real time    0.0024
 Broyden mixing: mesh for mixing (old mesh)
   NGX = 19   NGY = 23   NGZ = 27
  (NGX  = 60   NGY  = 72   NGZ  = 80)
  gives a total of  11799 points

 charge density for first step will be calculated from the start-wavefunctions


--------------------------------------------------------------------------------------------------------


 Maximum index for augmentation-charges          767 (set IRDMAX)


--------------------------------------------------------------------------------------------------------


 initial charge from wavefunction
 First call to EWALD:  gamma=   0.255
 Maximum number of real-space cells 3x 3x 2
 Maximum number of reciprocal cells 2x 3x 3

    FEWALD:  cpu time    0.0000: real time    0.0008


--------------------------------------- Iteration      1(   1)  ---------------------------------------


    POTLOK:  cpu time    0.1562: real time    0.1446
    SETDIJ:  cpu time    0.0000: real time    0.0038
     EDDAV:  cpu time    0.0469: real time    0.0446
       DOS:  cpu time    0.0000: real time    0.0002
    CHARGE:  cpu time    0.0156: real time    0.0176
    MIXING:  cpu time    0.0000: real time    0.0051
    --------------------------------------------
      LOOP:  cpu time    0.2188: real time    0.2160

 eigenvalue-minimisations  :    16
 total energy-change (2. order) :-0.2677271E+02  (-0.2740216E+02)
 number of electron       8.0000064 magnetization 
 augmentation part        0.3511421 magnetization 

 Broyden mixing:
  rms(total) = 0.51785E+01    rms(broyden)= 0.51778E+01
  rms(prec ) = 0.53642E+01
  weight for this iteration     100.00

 Free energy of the ion-electron system (eV)
  ---------------------------------------------------
  alpha Z        PSCENC =         0.68708806
  Ewald energy   TEWEN  =        68.73219124
  -Hartree energ DENC   =      -303.90734746
  -exchange      EXHF   =         0.00000000
  -V(xc)+E(xc)   XCENC  =        28.60132232
  PAW double counting   =      4586.91676682    -4588.19523096
  entropy T*S    EENTRO =         0.01159581
  eigenvalues    EBANDS =      -121.52999913
  atomic energy  EATOM  =       301.91090041
  Solvation  Ediel_sol  =         0.00000000
  ---------------------------------------------------
  free energy    TOTEN  =       -26.77271288 eV

  energy without entropy =      -26.78430869  energy(sigma->0) =      -26.77657815


--------------------------------------------------------------------------------------------------------




--------------------------------------- Iteration      1(   2)  ---------------------------------------


    POTLOK:  cpu time    0.1250: real time    0.1231
    SETDIJ:  cpu time    0.0156: real time    0.0033
     EDDAV:  cpu time    0.0312: real time    0.0421
       DOS:  cpu time    0.0000: real time    0.0003
    CHARGE:  cpu time    0.0156: real time    0.0145
    MIXING:  cpu time    0.0156: real time    0.0048
    --------------------------------------------
      LOOP:  cpu time    0.2031: real time    0.1880

 eigenvalue-minimisations  :    16
 total energy-change (2. order) : 0.5502697E+01  (-0.8556930E+00)
 number of electron       8.0000066 magnetization 
 augmentation part        0.3693748 magnetization 

 Broyden mixing:
  rms(total) = 0.30209E+01    rms(broyden)= 0.30208E+01
  rms(prec ) = 0.31179E+01
  weight for this iteration     100.00

 eigenvalues of (default mixing * dielectric matrix)
  average eigenvalue GAMMA=   2.3841
  2.3841

 Free energy of the ion-electron system (eV)
  ---------------------------------------------------
  alpha Z        PSCENC =         0.68708806
  Ewald energy   TEWEN  =        68.73219124
  -Hartree energ DENC   =      -309.40886737
  -exchange      EXHF   =         0.00000000
  -V(xc)+E(xc)   XCENC  =        28.91450549
  PAW double counting   =      2448.90101801    -2450.35019017
  entropy T*S    EENTRO =         0.01159581
  eigenvalues    EBANDS =      -110.66825765
  atomic energy  EATOM  =       301.91090041
  Solvation  Ediel_sol  =         0.00000000
  ---------------------------------------------------
  free energy    TOTEN  =       -21.27001618 eV

  energy without entropy =      -21.28161199  energy(sigma->0) =      -21.27388145


--------------------------------------------------------------------------------------------------------




--------------------------------------- Iteration      1(   3)  ---------------------------------------


    POTLOK:  cpu time    0.1094: real time    0.1169
    SETDIJ:  cpu time    0.0000: real time    0.0037
     EDDAV:  cpu time    0.0469: real time    0.0474
       DOS:  cpu time    0.0000: real time    0.0003
    CHARGE:  cpu time    0.0156: real time    0.0146
    MIXING:  cpu time    0.0156: real time    0.0075
    --------------------------------------------
      LOOP:  cpu time    0.1875: real time    0.1903

 eigenvalue-minimisations  :    16
 total energy-change (2. order) : 0.1831669E+01  (-0.1524429E+01)
 number of electron       8.0000060 magnetization 
 augmentation part        0.3169858 magnetization 

 Broyden mixing:
  rms(total) = 0.34122E+00    rms(broyden)= 0.34111E+00
  rms(prec ) = 0.48591E+00
  weight for this iteration     100.00

 eigenvalues of (default mixing * dielectric matrix)
  average eigenvalue GAMMA=   1.4764
  2.3881  0.5647

 Free energy of the ion-electron system (eV)
  ---------------------------------------------------
  alpha Z        PSCENC =         0.68708806
  Ewald energy   TEWEN  =        68.73219124
  -Hartree energ DENC   =      -325.68536454
  -exchange      EXHF   =         0.00000000
  -V(xc)+E(xc)   XCENC  =        29.86679307
  PAW double counting   =       691.85126771     -693.61550216
  entropy T*S    EENTRO =         0.01159581
  eigenvalues    EBANDS =       -93.19731664
  atomic energy  EATOM  =       301.91090041
  Solvation  Ediel_sol  =         0.00000000
  ---------------------------------------------------
  free energy    TOTEN  =       -19.43834703 eV

  energy without entropy =      -19.44994284  energy(sigma->0) =      -19.44221230


--------------------------------------------------------------------------------------------------------




--------------------------------------- Iteration      1(   4)  ---------------------------------------


    POTLOK:  cpu time    0.1094: real time    0.1229
    SETDIJ:  cpu time    0.0000: real time    0.0032
     EDDAV:  cpu time    0.0625: real time    0.0456
       DOS:  cpu time    0.0000: real time    0.0003
    CHARGE:  cpu time    0.0156: real time    0.0154
    MIXING:  cpu time    0.0000: real time    0.0067
    --------------------------------------------
      LOOP:  cpu time    0.1875: real time    0.1940

 eigenvalue-minimisations  :    16
 total energy-change (2. order) : 0.1214129E+00  (-0.7710348E-01)
 number of electron       8.0000061 magnetization 
 augmentation part        0.3234398 magnetization 

 Broyden mixing:
  rms(total) = 0.25664E+00    rms(broyden)= 0.25661E+00
  rms(prec ) = 0.35374E+00
  weight for this iteration     100.00

 eigenvalues of (default mixing * dielectric matrix)
  average eigenvalue GAMMA=   1.3909
  2.3575  0.9076  0.9076

 Free energy of the ion-electron system (eV)
  ---------------------------------------------------
  alpha Z        PSCENC =         0.68708806
  Ewald energy   TEWEN  =        68.73219124
  -Hartree energ DENC   =      -322.59208351
  -exchange      EXHF   =         0.00000000
  -V(xc)+E(xc)   XCENC  =        29.68564410
  PAW double counting   =       680.19871379     -681.92912102
  entropy T*S    EENTRO =         0.01159581
  eigenvalues    EBANDS =       -96.02186297
  atomic energy  EATOM  =       301.91090041
  Solvation  Ediel_sol  =         0.00000000
  ---------------------------------------------------
  free energy    TOTEN  =       -19.31693409 eV

  energy without entropy =      -19.32852990  energy(sigma->0) =      -19.32079936


--------------------------------------------------------------------------------------------------------




--------------------------------------- Iteration      1(   5)  ---------------------------------------


    POTLOK:  cpu time    0.1250: real time    0.1190
    SETDIJ:  cpu time    0.0000: real time    0.0035
     EDDAV:  cpu time    0.0469: real time    0.0608
       DOS:  cpu time    0.0000: real time    0.0002
    CHARGE:  cpu time    0.0312: real time    0.0146
    MIXING:  cpu time    0.0000: real time    0.0069
    --------------------------------------------
      LOOP:  cpu time    0.2031: real time    0.2051

 eigenvalue-minimisations  :    24
 total energy-change (2. order) : 0.1037680E+00  (-0.2880563E-01)
 number of electron       8.0000062 magnetization 
 augmentation part        0.3350778 magnetization 

 Broyden mixing:
  rms(total) = 0.12515E+00    rms(broyden)= 0.12513E+00
  rms(prec ) = 0.17070E+00
  weight for this iteration     100.00

 eigenvalues of (default mixing * dielectric matrix)
  average eigenvalue GAMMA=   1.6284
  2.7656  1.9440  0.9021  0.9021

 Free energy of the ion-electron system (eV)
  ---------------------------------------------------
  alpha Z        PSCENC =         0.68708806
  Ewald energy   TEWEN  =        68.73219124
  -Hartree energ DENC   =      -319.86169873
  -exchange      EXHF   =         0.00000000
  -V(xc)+E(xc)   XCENC  =        29.52275147
  PAW double counting   =       686.22874299     -687.92467533
  entropy T*S    EENTRO =         0.01159581
  eigenvalues    EBANDS =       -98.52006203
  atomic energy  EATOM  =       301.91090041
  Solvation  Ediel_sol  =         0.00000000
  ---------------------------------------------------
  free energy    TOTEN  =       -19.21316611 eV

  energy without entropy =      -19.22476192  energy(sigma->0) =      -19.21703138


--------------------------------------------------------------------------------------------------------




--------------------------------------- Iteration      1(   6)  ---------------------------------------


    POTLOK:  cpu time    0.1094: real time    0.1130
    SETDIJ:  cpu time    0.0000: real time    0.0034
     EDDAV:  cpu time    0.0625: real time    0.0447
       DOS:  cpu time    0.0000: real time    0.0004
    CHARGE:  cpu time    0.0000: real time    0.0130
    MIXING:  cpu time    0.0156: real time    0.0071
    --------------------------------------------
      LOOP:  cpu time    0.1875: real time    0.1817

 eigenvalue-minimisations  :    16
 total energy-change (2. order) :-0.8640376E-03  (-0.2637638E-01)
 number of electron       8.0000063 magnetization 
 augmentation part        0.3449340 magnetization 

 Broyden mixing:
  rms(total) = 0.83412E-01    rms(broyden)= 0.83376E-01
  rms(prec ) = 0.11109E+00
  weight for this iteration     100.00

 eigenvalues of (default mixing * dielectric matrix)
  average eigenvalue GAMMA=   1.5122
  2.5378  1.8632  0.9713  1.0942  1.0942

 Free energy of the ion-electron system (eV)
  ---------------------------------------------------
  alpha Z        PSCENC =         0.68708806
  Ewald energy   TEWEN  =        68.73219124
  -Hartree energ DENC   =      -317.56721852
  -exchange      EXHF   =         0.00000000
  -V(xc)+E(xc)   XCENC  =        29.37778440
  PAW double counting   =       649.22008190     -650.88490684
  entropy T*S    EENTRO =         0.01159581
  eigenvalues    EBANDS =      -100.70154660
  atomic energy  EATOM  =       301.91090041
  Solvation  Ediel_sol  =         0.00000000
  ---------------------------------------------------
  free energy    TOTEN  =       -19.21403014 eV

  energy without entropy =      -19.22562596  energy(sigma->0) =      -19.21789542


--------------------------------------------------------------------------------------------------------




--------------------------------------- Iteration      1(   7)  ---------------------------------------


    POTLOK:  cpu time    0.1094: real time    0.1130
    SETDIJ:  cpu time    0.0000: real time    0.0032
     EDDAV:  cpu time    0.0781: real time    0.0802
       DOS:  cpu time    0.0000: real time    0.0001
    CHARGE:  cpu time    0.0156: real time    0.0150
    MIXING:  cpu time    0.0156: real time    0.0060
    --------------------------------------------
      LOOP:  cpu time    0.2188: real time    0.2174

 eigenvalue-minimisations  :    32
 total energy-change (2. order) : 0.5227007E-02  (-0.3873908E-02)
 number of electron       8.0000063 magnetization 
 augmentation part        0.3410251 magnetization 

 Broyden mixing:
  rms(total) = 0.25479E-01    rms(broyden)= 0.25474E-01
  rms(prec ) = 0.46378E-01
  weight for this iteration     100.00

 eigenvalues of (default mixing * dielectric matrix)
  average eigenvalue GAMMA=   1.6154
  2.7218  2.3656  1.1748  1.1748  1.1277  1.1277

 Free energy of the ion-electron system (eV)
  ---------------------------------------------------
  alpha Z        PSCENC =         0.68708806
  Ewald energy   TEWEN  =        68.73219124
  -Hartree energ DENC   =      -318.47228547
  -exchange      EXHF   =         0.00000000
  -V(xc)+E(xc)   XCENC  =        29.41801993
  PAW double counting   =       651.00213519     -652.67832797
  entropy T*S    EENTRO =         0.01159581
  eigenvalues    EBANDS =       -99.82012034
  atomic energy  EATOM  =       301.91090041
  Solvation  Ediel_sol  =         0.00000000
  ---------------------------------------------------
  free energy    TOTEN  =       -19.20880314 eV

  energy without entropy =      -19.22039895  energy(sigma->0) =      -19.21266841


--------------------------------------------------------------------------------------------------------




--------------------------------------- Iteration      1(   8)  ---------------------------------------


    POTLOK:  cpu time    0.1250: real time    0.1273
    SETDIJ:  cpu time    0.0000: real time    0.0036
     EDDAV:  cpu time    0.0469: real time    0.0519
       DOS:  cpu time    0.0000: real time    0.0002
    CHARGE:  cpu time    0.0312: real time    0.0153
    MIXING:  cpu time    0.0000: real time    0.0053
    --------------------------------------------
      LOOP:  cpu time    0.2031: real time    0.2036

 eigenvalue-minimisations  :    16
 total energy-change (2. order) :-0.1472321E-01  (-0.1670105E-02)
 number of electron       8.0000063 magnetization 
 augmentation part        0.3388365 magnetization 

 Broyden mixing:
  rms(total) = 0.31431E-01    rms(broyden)= 0.31426E-01
  rms(prec ) = 0.34964E-01
  weight for this iteration     100.00

 eigenvalues of (default mixing * dielectric matrix)
  average eigenvalue GAMMA=   1.8237
  4.2216  2.5580  1.7886  1.1508  1.1508  1.0010  0.8954

 Free energy of the ion-electron system (eV)
  ---------------------------------------------------
  alpha Z        PSCENC =         0.68708806
  Ewald energy   TEWEN  =        68.73219124
  -Hartree energ DENC   =      -318.89282031
  -exchange      EXHF   =         0.00000000
  -V(xc)+E(xc)   XCENC  =        29.41893953
  PAW double counting   =       639.98096039     -641.66124837
  entropy T*S    EENTRO =         0.01159581
  eigenvalues    EBANDS =       -99.41113310
  atomic energy  EATOM  =       301.91090041
  Solvation  Ediel_sol  =         0.00000000
  ---------------------------------------------------
  free energy    TOTEN  =       -19.22352635 eV

  energy without entropy =      -19.23512216  energy(sigma->0) =      -19.22739162


--------------------------------------------------------------------------------------------------------




--------------------------------------- Iteration      1(   9)  ---------------------------------------


    POTLOK:  cpu time    0.1250: real time    0.1213
    SETDIJ:  cpu time    0.0000: real time    0.0040
     EDDAV:  cpu time    0.0469: real time    0.0558
       DOS:  cpu time    0.0000: real time    0.0003
    CHARGE:  cpu time    0.0156: real time    0.0131
    MIXING:  cpu time    0.0156: real time    0.0065
    --------------------------------------------
      LOOP:  cpu time    0.2031: real time    0.2010

 eigenvalue-minimisations  :    24
 total energy-change (2. order) :-0.2551283E-02  (-0.1250290E-03)
 number of electron       8.0000063 magnetization 
 augmentation part        0.3388835 magnetization 

 Broyden mixing:
  rms(total) = 0.20273E-01    rms(broyden)= 0.20272E-01
  rms(prec ) = 0.23071E-01
  weight for this iteration     100.00

 eigenvalues of (default mixing * dielectric matrix)
  average eigenvalue GAMMA=   1.9608
  5.2323  2.5214  2.1714  1.5233  1.1298  1.1298  0.9478  1.0304

 Free energy of the ion-electron system (eV)
  ---------------------------------------------------
  alpha Z        PSCENC =         0.68708806
  Ewald energy   TEWEN  =        68.73219124
  -Hartree energ DENC   =      -318.88508879
  -exchange      EXHF   =         0.00000000
  -V(xc)+E(xc)   XCENC  =        29.41580894
  PAW double counting   =       645.15186688     -646.83196572
  entropy T*S    EENTRO =         0.01159581
  eigenvalues    EBANDS =       -99.41847447
  atomic energy  EATOM  =       301.91090041
  Solvation  Ediel_sol  =         0.00000000
  ---------------------------------------------------
  free energy    TOTEN  =       -19.22607763 eV

  energy without entropy =      -19.23767344  energy(sigma->0) =      -19.22994290


--------------------------------------------------------------------------------------------------------




--------------------------------------- Iteration      1(  10)  ---------------------------------------


    POTLOK:  cpu time    0.1094: real time    0.1227
    SETDIJ:  cpu time    0.0156: real time    0.0043
     EDDAV:  cpu time    0.0469: real time    0.0463
       DOS:  cpu time    0.0000: real time    0.0001
    CHARGE:  cpu time    0.0156: real time    0.0108
    MIXING:  cpu time    0.0000: real time    0.0059
    --------------------------------------------
      LOOP:  cpu time    0.1875: real time    0.1901

 eigenvalue-minimisations  :    16
 total energy-change (2. order) :-0.1243637E-02  (-0.2739635E-03)
 number of electron       8.0000063 magnetization 
 augmentation part        0.3401003 magnetization 

 Broyden mixing:
  rms(total) = 0.66147E-02    rms(broyden)= 0.66117E-02
  rms(prec ) = 0.77477E-02
  weight for this iteration     100.00

 eigenvalues of (default mixing * dielectric matrix)
  average eigenvalue GAMMA=   2.0380
  5.9613  2.5079  2.4372  1.9177  1.1483  1.1483  1.2054  1.0408  0.9755

 Free energy of the ion-electron system (eV)
  ---------------------------------------------------
  alpha Z        PSCENC =         0.68708806
  Ewald energy   TEWEN  =        68.73219124
  -Hartree energ DENC   =      -318.64479916
  -exchange      EXHF   =         0.00000000
  -V(xc)+E(xc)   XCENC  =        29.40359488
  PAW double counting   =       650.73879854     -652.41630049
  entropy T*S    EENTRO =         0.01159581
  eigenvalues    EBANDS =       -99.65039056
  atomic energy  EATOM  =       301.91090041
  Solvation  Ediel_sol  =         0.00000000
  ---------------------------------------------------
  free energy    TOTEN  =       -19.22732127 eV

  energy without entropy =      -19.23891708  energy(sigma->0) =      -19.23118654


--------------------------------------------------------------------------------------------------------




--------------------------------------- Iteration      1(  11)  ---------------------------------------


    POTLOK:  cpu time    0.1250: real time    0.1180
    SETDIJ:  cpu time    0.0000: real time    0.0036
     EDDAV:  cpu time    0.0312: real time    0.0405
       DOS:  cpu time    0.0000: real time    0.0002
    CHARGE:  cpu time    0.0156: real time    0.0131
    MIXING:  cpu time    0.0156: real time    0.0079
    --------------------------------------------
      LOOP:  cpu time    0.1875: real time    0.1832

 eigenvalue-minimisations  :    16
 total energy-change (2. order) :-0.3684601E-03  (-0.2148927E-04)
 number of electron       8.0000063 magnetization 
 augmentation part        0.3398067 magnetization 

 Broyden mixing:
  rms(total) = 0.30251E-02    rms(broyden)= 0.30250E-02
  rms(prec ) = 0.32561E-02
  weight for this iteration     100.00

 eigenvalues of (default mixing * dielectric matrix)
  average eigenvalue GAMMA=   2.0507
  6.3460  3.0400  2.5769  1.6256  1.6256  1.1448  1.1448  0.9107  1.0463  1.0463

 Free energy of the ion-electron system (eV)
  ---------------------------------------------------
  alpha Z        PSCENC =         0.68708806
  Ewald energy   TEWEN  =        68.73219124
  -Hartree energ DENC   =      -318.67309862
  -exchange      EXHF   =         0.00000000
  -V(xc)+E(xc)   XCENC  =        29.40503378
  PAW double counting   =       649.78419940     -651.46253360
  entropy T*S    EENTRO =         0.01159581
  eigenvalues    EBANDS =       -99.62306621
  atomic energy  EATOM  =       301.91090041
  Solvation  Ediel_sol  =         0.00000000
  ---------------------------------------------------
  free energy    TOTEN  =       -19.22768973 eV

  energy without entropy =      -19.23928554  energy(sigma->0) =      -19.23155500


--------------------------------------------------------------------------------------------------------




--------------------------------------- Iteration      1(  12)  ---------------------------------------


    POTLOK:  cpu time    0.1094: real time    0.1202
    SETDIJ:  cpu time    0.0156: real time    0.0037
     EDDAV:  cpu time    0.0469: real time    0.0645
       DOS:  cpu time    0.0000: real time    0.0002
    CHARGE:  cpu time    0.0312: real time    0.0178
    MIXING:  cpu time    0.0000: real time    0.0047
    --------------------------------------------
      LOOP:  cpu time    0.2031: real time    0.2111

 eigenvalue-minimisations  :    24
 total energy-change (2. order) :-0.1262116E-03  (-0.5903007E-05)
 number of electron       8.0000063 magnetization 
 augmentation part        0.3397359 magnetization 

 Broyden mixing:
  rms(total) = 0.10499E-02    rms(broyden)= 0.10497E-02
  rms(prec ) = 0.11496E-02
  weight for this iteration     100.00

 eigenvalues of (default mixing * dielectric matrix)
  average eigenvalue GAMMA=   2.0589
  6.4973  3.3263  2.4288  2.2309  1.4654  1.4654  1.1331  1.1331  0.9352  1.0162
  1.0162

 Free energy of the ion-electron system (eV)
  ---------------------------------------------------
  alpha Z        PSCENC =         0.68708806
  Ewald energy   TEWEN  =        68.73219124
  -Hartree energ DENC   =      -318.67909796
  -exchange      EXHF   =         0.00000000
  -V(xc)+E(xc)   XCENC  =        29.40520299
  PAW double counting   =       649.12888711     -650.80735663
  entropy T*S    EENTRO =         0.01159581
  eigenvalues    EBANDS =       -99.61722697
  atomic energy  EATOM  =       301.91090041
  Solvation  Ediel_sol  =         0.00000000
  ---------------------------------------------------
  free energy    TOTEN  =       -19.22781594 eV

  energy without entropy =      -19.23941175  energy(sigma->0) =      -19.23168121


--------------------------------------------------------------------------------------------------------




--------------------------------------- Iteration      1(  13)  ---------------------------------------


    POTLOK:  cpu time    0.1250: real time    0.1292
    SETDIJ:  cpu time    0.0156: real time    0.0025
     EDDAV:  cpu time    0.0469: real time    0.0556
       DOS:  cpu time    0.0000: real time    0.0002
    CHARGE:  cpu time    0.0156: real time    0.0113
    MIXING:  cpu time    0.0000: real time    0.0069
    --------------------------------------------
      LOOP:  cpu time    0.2031: real time    0.2057

 eigenvalue-minimisations  :    24
 total energy-change (2. order) :-0.3819988E-04  (-0.1303852E-05)
 number of electron       8.0000063 magnetization 
 augmentation part        0.3397734 magnetization 

 Broyden mixing:
  rms(total) = 0.44497E-03    rms(broyden)= 0.44494E-03
  rms(prec ) = 0.60512E-03
  weight for this iteration     100.00

 eigenvalues of (default mixing * dielectric matrix)
  average eigenvalue GAMMA=   2.0866
  6.5274  3.8744  2.5844  2.5844  1.8172  1.1471  1.1471  1.3306  1.0742  1.0742
  0.9394  0.9394

 Free energy of the ion-electron system (eV)
  ---------------------------------------------------
  alpha Z        PSCENC =         0.68708806
  Ewald energy   TEWEN  =        68.73219124
  -Hartree energ DENC   =      -318.65984200
  -exchange      EXHF   =         0.00000000
  -V(xc)+E(xc)   XCENC  =        29.40413500
  PAW double counting   =       648.95559688     -650.63383205
  entropy T*S    EENTRO =         0.01159581
  eigenvalues    EBANDS =       -99.63568749
  atomic energy  EATOM  =       301.91090041
  Solvation  Ediel_sol  =         0.00000000
  ---------------------------------------------------
  free energy    TOTEN  =       -19.22785414 eV

  energy without entropy =      -19.23944995  energy(sigma->0) =      -19.23171941


--------------------------------------------------------------------------------------------------------




--------------------------------------- Iteration      1(  14)  ---------------------------------------


    POTLOK:  cpu time    0.0938: real time    0.1108
    SETDIJ:  cpu time    0.0156: real time    0.0042
     EDDAV:  cpu time    0.0469: real time    0.0550
       DOS:  cpu time    0.0000: real time    0.0004
    CHARGE:  cpu time    0.0156: real time    0.0126
    MIXING:  cpu time    0.0000: real time    0.0070
    --------------------------------------------
      LOOP:  cpu time    0.1719: real time    0.1901

 eigenvalue-minimisations  :    24
 total energy-change (2. order) :-0.9905651E-05  (-0.6560553E-06)
 number of electron       8.0000063 magnetization 
 augmentation part        0.3397229 magnetization 

 Broyden mixing:
  rms(total) = 0.60093E-03    rms(broyden)= 0.60086E-03
  rms(prec ) = 0.64666E-03
  weight for this iteration     100.00

 eigenvalues of (default mixing * dielectric matrix)
  average eigenvalue GAMMA=   2.0566
  6.5642  3.9691  2.5057  2.5057  2.1649  1.6749  1.1488  1.1488  1.0884  1.0329
  1.0329  0.9236  0.9754

 Free energy of the ion-electron system (eV)
  ---------------------------------------------------
  alpha Z        PSCENC =         0.68708806
  Ewald energy   TEWEN  =        68.73219124
  -Hartree energ DENC   =      -318.66859405
  -exchange      EXHF   =         0.00000000
  -V(xc)+E(xc)   XCENC  =        29.40462927
  PAW double counting   =       648.75077986     -650.42913578
  entropy T*S    EENTRO =         0.01159581
  eigenvalues    EBANDS =       -99.62731886
  atomic energy  EATOM  =       301.91090041
  Solvation  Ediel_sol  =         0.00000000
  ---------------------------------------------------
  free energy    TOTEN  =       -19.22786405 eV

  energy without entropy =      -19.23945986  energy(sigma->0) =      -19.23172932


--------------------------------------------------------------------------------------------------------




--------------------------------------- Iteration      1(  15)  ---------------------------------------


    POTLOK:  cpu time    0.1250: real time    0.1157
    SETDIJ:  cpu time    0.0000: real time    0.0033
     EDDAV:  cpu time    0.0312: real time    0.0355
       DOS:  cpu time    0.0000: real time    0.0002
    CHARGE:  cpu time    0.0156: real time    0.0127
    MIXING:  cpu time    0.0156: real time    0.0091
    --------------------------------------------
      LOOP:  cpu time    0.1875: real time    0.1766

 eigenvalue-minimisations  :    16
 total energy-change (2. order) :-0.2492796E-05  (-0.8157502E-07)
 number of electron       8.0000063 magnetization 
 augmentation part        0.3397421 magnetization 

 Broyden mixing:
  rms(total) = 0.14707E-03    rms(broyden)= 0.14706E-03
  rms(prec ) = 0.16089E-03
  weight for this iteration     100.00

 eigenvalues of (default mixing * dielectric matrix)
  average eigenvalue GAMMA=   2.0722
  6.5975  4.1023  3.1615  2.5062  2.0629  1.7745  1.5185  1.1495  1.1495  1.0193
  1.0193  1.0385  0.9555  0.9555

 Free energy of the ion-electron system (eV)
  ---------------------------------------------------
  alpha Z        PSCENC =         0.68708806
  Ewald energy   TEWEN  =        68.73219124
  -Hartree energ DENC   =      -318.66553340
  -exchange      EXHF   =         0.00000000
  -V(xc)+E(xc)   XCENC  =        29.40452794
  PAW double counting   =       648.99366584     -650.67198600
  entropy T*S    EENTRO =         0.01159581
  eigenvalues    EBANDS =       -99.63031644
  atomic energy  EATOM  =       301.91090041
  Solvation  Ediel_sol  =         0.00000000
  ---------------------------------------------------
  free energy    TOTEN  =       -19.22786654 eV

  energy without entropy =      -19.23946235  energy(sigma->0) =      -19.23173181


--------------------------------------------------------------------------------------------------------




--------------------------------------- Iteration      1(  16)  ---------------------------------------


    POTLOK:  cpu time    0.0938: real time    0.1026
    SETDIJ:  cpu time    0.0000: real time    0.0028
     EDDAV:  cpu time    0.0312: real time    0.0284
       DOS:  cpu time    0.0000: real time    0.0001
    CHARGE:  cpu time    0.0156: real time    0.0077
    MIXING:  cpu time    0.0000: real time    0.0062
    --------------------------------------------
      LOOP:  cpu time    0.1406: real time    0.1479

 eigenvalue-minimisations  :    16
 total energy-change (2. order) :-0.1320487E-05  (-0.9674379E-08)
 number of electron       8.0000063 magnetization 
 augmentation part        0.3397438 magnetization 

 Broyden mixing:
  rms(total) = 0.68728E-04    rms(broyden)= 0.68723E-04
  rms(prec ) = 0.78638E-04
  weight for this iteration     100.00

 eigenvalues of (default mixing * dielectric matrix)
  average eigenvalue GAMMA=   2.0940
  6.5811  4.4798  3.0114  2.6547  2.6547  1.9813  1.6378  1.1491  1.1491  1.1019
  1.1019  1.0022  1.0022  0.9514  0.9514

 Free energy of the ion-electron system (eV)
  ---------------------------------------------------
  alpha Z        PSCENC =         0.68708806
  Ewald energy   TEWEN  =        68.73219124
  -Hartree energ DENC   =      -318.66389845
  -exchange      EXHF   =         0.00000000
  -V(xc)+E(xc)   XCENC  =        29.40445636
  PAW double counting   =       648.96145239     -650.63977150
  entropy T*S    EENTRO =         0.01159581
  eigenvalues    EBANDS =       -99.63188218
  atomic energy  EATOM  =       301.91090041
  Solvation  Ediel_sol  =         0.00000000
  ---------------------------------------------------
  free energy    TOTEN  =       -19.22786786 eV

  energy without entropy =      -19.23946367  energy(sigma->0) =      -19.23173313


--------------------------------------------------------------------------------------------------------




--------------------------------------- Iteration      1(  17)  ---------------------------------------


    POTLOK:  cpu time    0.1094: real time    0.1119
    SETDIJ:  cpu time    0.0156: real time    0.0035
     EDDAV:  cpu time    0.0312: real time    0.0325
       DOS:  cpu time    0.0000: real time    0.0003
    --------------------------------------------
      LOOP:  cpu time    0.1562: real time    0.1483

 eigenvalue-minimisations  :    16
 total energy-change (2. order) :-0.8090072E-06  (-0.4308040E-08)
 number of electron       8.0000063 magnetization 
 augmentation part        0.3397438 magnetization 

 Free energy of the ion-electron system (eV)
  ---------------------------------------------------
  alpha Z        PSCENC =         0.68708806
  Ewald energy   TEWEN  =        68.73219124
  -Hartree energ DENC   =      -318.66348818
  -exchange      EXHF   =         0.00000000
  -V(xc)+E(xc)   XCENC  =        29.40445081
  PAW double counting   =       648.94344459     -650.62177531
  entropy T*S    EENTRO =         0.01159581
  eigenvalues    EBANDS =       -99.63227609
  atomic energy  EATOM  =       301.91090041
  Solvation  Ediel_sol  =         0.00000000
  ---------------------------------------------------
  free energy    TOTEN  =       -19.22786867 eV

  energy without entropy =      -19.23946448  energy(sigma->0) =      -19.23173394


--------------------------------------------------------------------------------------------------------




 average (electrostatic) potential at core
  the test charge radii are     0.5201  0.7089
  (the norm of the test charge is              1.0000)
       1 -43.5449       2 -43.5414       3 -43.5449       4 -72.3769



 E-fermi :  -5.2040     XC(G=0):  -1.6648     alpha+bet : -0.5051


 k-point     1 :       0.0000    0.0000    0.0000
  band No.  band energies     occupation 
      1     -21.0487      2.00000
      2     -11.6978      2.00000
      3     -11.6973      2.00000
      4      -5.3724      2.00000
      5      -1.0247     -0.00000
      6       1.4971      0.00000
      7       1.6726      0.00000
      8       1.8537      0.00000


--------------------------------------------------------------------------------------------------------


 soft charge-density along one line, spin component           1
         0         1         2         3         4         5         6         7         8         9
 total charge-density along one line

 pseudopotential strength for first ion, spin component:           1
 -2.365  -4.082   0.001   0.000   0.002
 -4.082  -6.956   0.004   0.002   0.007
  0.001   0.004  -0.325   0.001   0.004
  0.000   0.002   0.001  -0.327   0.002
  0.002   0.007   0.004   0.002  -0.320
 total augmentation occupancy for first ion, spin component:           1
  4.068  -0.794  -0.343  -0.135  -0.594
 -0.794   0.181   0.066   0.029   0.114
 -0.343   0.066   0.042   0.008   0.043
 -0.135   0.029   0.008   0.042   0.014
 -0.594   0.114   0.043   0.014   0.092


------------------------ aborting loop because EDIFF is reached ----------------------------------------


    CHARGE:  cpu time    0.0000: real time    0.0102
    FORLOC:  cpu time    0.0156: real time    0.0082
    FORNL :  cpu time    0.0156: real time    0.0091
    STRESS:  cpu time    0.0469: real time    0.0567
    FORCOR:  cpu time    0.1250: real time    0.1160
    FORHAR:  cpu time    0.0312: real time    0.0379
    MIXING:  cpu time    0.0156: real time    0.0090
    OFIELD:  cpu time    0.0000: real time    0.0000

  FORCE on cell =-STRESS in cart. coord.  units (eV):
  Direction    XX          YY          ZZ          XY          YZ          ZX
  --------------------------------------------------------------------------------------
  Alpha Z     0.68709     0.68709     0.68709
  Ewald      88.91554    60.35352   -80.53689    -0.00000     0.02477    -0.00000
  Hartree   139.57239   112.98229    66.10908    -0.00000     0.01508    -0.00000
  E(xc)     -31.30300   -31.30394   -31.69096     0.00000    -0.00002     0.00000
  Local    -292.66238  -237.52488   -82.60212     0.00000    -0.03722     0.00000
  n-local   -24.16171   -24.15018   -25.89773    -0.00000     0.00024    -0.00000
  augment     1.20063     1.20156     2.07740     0.00000    -0.00036     0.00000
  Kinetic   120.20110   120.15654   151.36423     0.00000    -0.01072     0.00000
  Fock        0.00000     0.00000     0.00000     0.00000     0.00000     0.00000
  -------------------------------------------------------------------------------------
  Total       2.44966     2.40199    -0.48991     0.00000    -0.00823     0.00000
  in kB      11.68092    11.45362    -2.33610     0.00000    -0.03925     0.00000
  external pressure =        6.93 kB  Pullay stress =        0.00 kB


 VOLUME and BASIS-vectors are now :
 -----------------------------------------------------------------------------
  energy-cutoff  :      400.00
  volume of cell :      336.00
      direct lattice vectors                 reciprocal lattice vectors
     6.000000000  0.000000000  0.000000000     0.166666667  0.000000000  0.000000000
     0.000000000  7.000000000  0.000000000     0.000000000  0.142857143  0.000000000
     0.000000000  0.000000000  8.000000000     0.000000000  0.000000000  0.125000000

  length of vectors
     6.000000000  7.000000000  8.000000000     0.166666667  0.142857143  0.125000000


 FORCES acting on ions
    electron-ion (+dipol)            ewald-force                    non-local-force                 convergence-correction
 -----------------------------------------------------------------------------------------------
   -.622E+02 -.365E+02 -.135E+02   0.715E+02 0.419E+02 0.157E+02   -.729E+01 -.420E+01 -.155E+01   0.247E-04 0.260E-04 0.437E-04
   0.159E-13 0.730E+02 -.135E+02   0.137E-16 -.836E+02 0.157E+02   0.000E+00 0.841E+01 -.154E+01   0.107E-14 -.470E-04 0.494E-04
   0.622E+02 -.365E+02 -.135E+02   -.715E+02 0.419E+02 0.157E+02   0.729E+01 -.420E+01 -.155E+01   -.247E-04 0.260E-04 0.437E-04
   0.964E-13 0.762E-01 0.284E+02   0.951E-16 -.877E-01 -.471E+02   0.000E+00 0.223E-01 0.167E+02   0.823E-14 0.854E-04 0.391E-03
 -----------------------------------------------------------------------------------------------
   0.325E-13 -.274E-01 -.120E+02   0.951E-16 -.555E-16 0.000E+00   0.000E+00 0.276E-01 0.120E+02   0.106E-13 0.904E-04 0.528E-03


 POSITION                                       TOTAL-FORCE (eV/Angst)
 -----------------------------------------------------------------------------------
      3.81857      3.97220      4.19666         1.968229      1.135445      0.662063
      3.00000      2.55489      4.19653         0.000000     -2.281681      0.662704
      2.18143      3.97220      4.19666        -1.968229      1.135445      0.662063
      3.00000      3.50000      4.00000         0.000000      0.010791     -1.986831
 -----------------------------------------------------------------------------------
    total drift:                                0.000000      0.000293      0.000199


--------------------------------------------------------------------------------------------------------



  FREE ENERGIE OF THE ION-ELECTRON SYSTEM (eV)
  ---------------------------------------------------
  free  energy   TOTEN  =       -19.22786867 eV

  energy  without entropy=      -19.23946448  energy(sigma->0) =      -19.23173394



--------------------------------------------------------------------------------------------------------


    POTLOK:  cpu time    0.1250: real time    0.1206


--------------------------------------------------------------------------------------------------------


 NEB: the previous image is higher in energy: F
 NEB: the next image is higher in energy    : T
 NEB: only next energy greater

 NEB: Tangent
 ----------------------------------------------
      0.00000      0.00000     -0.57747
      0.00000      0.00000     -0.57710
      0.00000      0.00000     -0.57747
      0.00000      0.00000      0.00000

 NEB: forces: par spring, perp REAL, dneb     0.000000    4.413616    0.000000
 NEB: distance to prev, next image, angle between     0.340549    0.340549  180.000000
 NEB: projections on to tangent (spring, REAL)     0.000000   -1.147097

 stress matrix after NEB project (eV)
      2.44966      0.00000      0.00000
      0.00000      2.40199     -0.00823
      0.00000     -0.00823     -0.48991
  FORCES: max atom, RMS     2.281681    2.206808
  FORCE total and by dimension    4.413616    2.281681
  Stress total and by dimension    3.465623    2.449659
 
 OPT: Flag T
 OPT: LBFGS Step
 OPT: LBFGS start
 OPT: LBFGS, initial finite difference
 OPT: LBFGS: positions in Cartesian coordinates
      3.81971061      3.97285816      4.19665779
      3.00000000      2.55357042      4.19653241
      2.18028939      3.97285816      4.19665779
      3.00000000      3.50000626      3.99884659
 OPT: LBFGS END subroutine


--------------------------------------------------------------------------------------------------------


    WAVPRE:  cpu time    0.4531: real time    0.4697
    FEWALD:  cpu time    0.0000: real time    0.0007
    ORTHCH:  cpu time    0.0000: real time    0.0026
     LOOP+:  cpu time    4.0781: real time    4.0957


--------------------------------------- Iteration      2(   1)  ---------------------------------------


    POTLOK:  cpu time    0.1094: real time    0.1278
    SETDIJ:  cpu time    0.0000: real time    0.0036
     EDDAV:  cpu time    0.0469: real time    0.0484
       DOS:  cpu time    0.0156: real time    0.0003
    CHARGE:  cpu time    0.0000: real time    0.0143
    MIXING:  cpu time    0.0156: real time    0.0043
    --------------------------------------------
      LOOP:  cpu time    0.1875: real time    0.1988

 eigenvalue-minimisations  :    16
 total energy-change (2. order) :-0.1115530E-01  (-0.1006752E-02)
 number of electron       8.0000062 magnetization 
 augmentation part        0.3386823 magnetization 

 Broyden mixing:
  rms(total) = 0.43459E-02    rms(broyden)= 0.43326E-02
  rms(prec ) = 0.61136E-02
  weight for this iteration     100.00

 Free energy of the ion-electron system (eV)
  ---------------------------------------------------
  alpha Z        PSCENC =         0.68708806
  Ewald energy   TEWEN  =        68.34906069
  -Hartree energ DENC   =      -318.47854138
  -exchange      EXHF   =         0.00000000
  -V(xc)+E(xc)   XCENC  =        29.39468464
  PAW double counting   =       648.93179005     -650.61012089
  entropy T*S    EENTRO =         0.01159581
  eigenvalues    EBANDS =       -99.43548056
  atomic energy  EATOM  =       301.91090041
  Solvation  Ediel_sol  =         0.00000000
  ---------------------------------------------------
  free energy    TOTEN  =       -19.23902316 eV

  energy without entropy =      -19.25061897  energy(sigma->0) =      -19.24288843


--------------------------------------------------------------------------------------------------------




--------------------------------------- Iteration      2(   2)  ---------------------------------------


    POTLOK:  cpu time    0.1250: real time    0.1316
    SETDIJ:  cpu time    0.0000: real time    0.0034
     EDDAV:  cpu time    0.0469: real time    0.0425
       DOS:  cpu time    0.0000: real time    0.0003
    CHARGE:  cpu time    0.0156: real time    0.0126
    MIXING:  cpu time    0.0000: real time    0.0040
    --------------------------------------------
      LOOP:  cpu time    0.1875: real time    0.1943

 eigenvalue-minimisations  :    16
 total energy-change (2. order) : 0.4259778E-04  (-0.2386831E-04)
 number of electron       8.0000062 magnetization 
 augmentation part        0.3388997 magnetization 

 Broyden mixing:
  rms(total) = 0.20094E-02    rms(broyden)= 0.20081E-02
  rms(prec ) = 0.24635E-02
  weight for this iteration     100.00

 eigenvalues of (default mixing * dielectric matrix)
  average eigenvalue GAMMA=   1.2287
  1.2287

 Free energy of the ion-electron system (eV)
  ---------------------------------------------------
  alpha Z        PSCENC =         0.68708806
  Ewald energy   TEWEN  =        68.34906069
  -Hartree energ DENC   =      -318.38751068
  -exchange      EXHF   =         0.00000000
  -V(xc)+E(xc)   XCENC  =        29.38950484
  PAW double counting   =       648.22599988     -649.90291342
  entropy T*S    EENTRO =         0.01159581
  eigenvalues    EBANDS =       -99.52270616
  atomic energy  EATOM  =       301.91090041
  Solvation  Ediel_sol  =         0.00000000
  ---------------------------------------------------
  free energy    TOTEN  =       -19.23898056 eV

  energy without entropy =      -19.25057637  energy(sigma->0) =      -19.24284583


--------------------------------------------------------------------------------------------------------




--------------------------------------- Iteration      2(   3)  ---------------------------------------


    POTLOK:  cpu time    0.1406: real time    0.1321
    SETDIJ:  cpu time    0.0000: real time    0.0035
     EDDAV:  cpu time    0.0469: real time    0.0463
       DOS:  cpu time    0.0000: real time    0.0002
    CHARGE:  cpu time    0.0156: real time    0.0156
    MIXING:  cpu time    0.0000: real time    0.0074
    --------------------------------------------
      LOOP:  cpu time    0.2031: real time    0.2052

 eigenvalue-minimisations  :    16
 total energy-change (2. order) : 0.3449133E-05  (-0.2823428E-05)
 number of electron       8.0000062 magnetization 
 augmentation part        0.3390044 magnetization 

 Broyden mixing:
  rms(total) = 0.12182E-02    rms(broyden)= 0.12178E-02
  rms(prec ) = 0.13356E-02
  weight for this iteration     100.00

 eigenvalues of (default mixing * dielectric matrix)
  average eigenvalue GAMMA=   1.4216
  1.4216  1.4216

 Free energy of the ion-electron system (eV)
  ---------------------------------------------------
  alpha Z        PSCENC =         0.68708806
  Ewald energy   TEWEN  =        68.34906069
  -Hartree energ DENC   =      -318.36065320
  -exchange      EXHF   =         0.00000000
  -V(xc)+E(xc)   XCENC  =        29.38795352
  PAW double counting   =       647.61032809     -649.28654668
  entropy T*S    EENTRO =         0.01159581
  eigenvalues    EBANDS =       -99.54870382
  atomic energy  EATOM  =       301.91090041
  Solvation  Ediel_sol  =         0.00000000
  ---------------------------------------------------
  free energy    TOTEN  =       -19.23897711 eV

  energy without entropy =      -19.25057292  energy(sigma->0) =      -19.24284238


--------------------------------------------------------------------------------------------------------




--------------------------------------- Iteration      2(   4)  ---------------------------------------


    POTLOK:  cpu time    0.1875: real time    0.2090
    SETDIJ:  cpu time    0.0000: real time    0.0035
     EDDAV:  cpu time    0.0469: real time    0.0497
       DOS:  cpu time    0.0000: real time    0.0003
    --------------------------------------------
      LOOP:  cpu time    0.2344: real time    0.2624

 eigenvalue-minimisations  :    16
 total energy-change (2. order) :-0.3064766E-06  (-0.4617605E-06)
 number of electron       8.0000062 magnetization 
 augmentation part        0.3390044 magnetization 

 Free energy of the ion-electron system (eV)
  ---------------------------------------------------
  alpha Z        PSCENC =         0.68708806
  Ewald energy   TEWEN  =        68.34906069
  -Hartree energ DENC   =      -318.36980483
  -exchange      EXHF   =         0.00000000
  -V(xc)+E(xc)   XCENC  =        29.38840392
  PAW double counting   =       647.19586056     -648.87194516
  entropy T*S    EENTRO =         0.01159581
  eigenvalues    EBANDS =       -99.54013688
  atomic energy  EATOM  =       301.91090041
  Solvation  Ediel_sol  =         0.00000000
  ---------------------------------------------------
  free energy    TOTEN  =       -19.23897742 eV

  energy without entropy =      -19.25057323  energy(sigma->0) =      -19.24284269


--------------------------------------------------------------------------------------------------------




 average (electrostatic) potential at core
  the test charge radii are     0.5201  0.7089
  (the norm of the test charge is              1.0000)
       1 -43.5235       2 -43.5199       3 -43.5235       4 -72.3763



 E-fermi :  -5.2029     XC(G=0):  -1.6619     alpha+bet : -0.5051


 k-point     1 :       0.0000    0.0000    0.0000
  band No.  band energies     occupation 
      1     -21.0326      2.00000
      2     -11.6834      2.00000
      3     -11.6829      2.00000
      4      -5.3712      2.00000
      5      -1.0263     -0.00000
      6       1.5015      0.00000
      7       1.6728      0.00000
      8       1.8512      0.00000


--------------------------------------------------------------------------------------------------------


 soft charge-density along one line, spin component           1
         0         1         2         3         4         5         6         7         8         9
 total charge-density along one line

 pseudopotential strength for first ion, spin component:           1
 -2.365  -4.081   0.001   0.000   0.002
 -4.081  -6.956   0.004   0.002   0.007
  0.001   0.004  -0.325   0.001   0.004
  0.000   0.002   0.001  -0.328   0.002
  0.002   0.007   0.004   0.002  -0.320
 total augmentation occupancy for first ion, spin component:           1
  4.063  -0.794  -0.341  -0.135  -0.591
 -0.794   0.181   0.066   0.029   0.114
 -0.341   0.066   0.041   0.008   0.043
 -0.135   0.029   0.008   0.042   0.014
 -0.591   0.114   0.043   0.014   0.091


------------------------ aborting loop because EDIFF is reached ----------------------------------------


    CHARGE:  cpu time    0.0156: real time    0.0150
    FORLOC:  cpu time    0.0156: real time    0.0077
    FORNL :  cpu time    0.0000: real time    0.0081
    STRESS:  cpu time    0.0781: real time    0.0708
    FORCOR:  cpu time    0.1719: real time    0.1926
    FORHAR:  cpu time    0.0312: real time    0.0402
    MIXING:  cpu time    0.0000: real time    0.0052
    OFIELD:  cpu time    0.0000: real time    0.0000

  FORCE on cell =-STRESS in cart. coord.  units (eV):
  Direction    XX          YY          ZZ          XY          YZ          ZX
  --------------------------------------------------------------------------------------
  Alpha Z     0.68709     0.68709     0.68709
  Ewald      88.69075    60.12951   -80.47123    -0.00000     0.02517     0.00000
  Hartree   139.46349   112.87726    66.01202    -0.00000     0.01516    -0.00000
  E(xc)     -31.28592   -31.28687   -31.67390    -0.00000    -0.00002     0.00000
  Local    -292.41630  -237.28415   -82.52147    -0.00000    -0.03750    -0.00000
  n-local   -24.10943   -24.09766   -25.85818    -0.00000     0.00025    -0.00000
  augment     1.20048     1.20146     2.07392    -0.00000    -0.00037     0.00000
  Kinetic   120.09764   120.05234   151.25052    -0.00000    -0.01080    -0.00000
  Fock        0.00000     0.00000     0.00000     0.00000     0.00000     0.00000
  -------------------------------------------------------------------------------------
  Total       2.32780     2.27898    -0.50124     0.00000    -0.00811     0.00000
  in kB      11.09986    10.86707    -2.39009     0.00000    -0.03866     0.00000
  external pressure =        6.53 kB  Pullay stress =        0.00 kB


 VOLUME and BASIS-vectors are now :
 -----------------------------------------------------------------------------
  energy-cutoff  :      400.00
  volume of cell :      336.00
      direct lattice vectors                 reciprocal lattice vectors
     6.000000000  0.000000000  0.000000000     0.166666667  0.000000000  0.000000000
     0.000000000  7.000000000  0.000000000     0.000000000  0.142857143  0.000000000
     0.000000000  0.000000000  8.000000000     0.000000000  0.000000000  0.125000000

  length of vectors
     6.000000000  7.000000000  8.000000000     0.166666667  0.142857143  0.125000000


 FORCES acting on ions
    electron-ion (+dipol)            ewald-force                    non-local-force                 convergence-correction
 -----------------------------------------------------------------------------------------------
   -.621E+02 -.365E+02 -.135E+02   0.712E+02 0.417E+02 0.157E+02   -.725E+01 -.418E+01 -.154E+01   -.137E-02 -.785E-03 0.286E-03
   0.166E-13 0.728E+02 -.135E+02   -.460E-15 -.834E+02 0.157E+02   0.000E+00 0.837E+01 -.154E+01   -.229E-15 0.161E-02 0.287E-03
   0.621E+02 -.365E+02 -.135E+02   -.712E+02 0.417E+02 0.157E+02   0.725E+01 -.418E+01 -.154E+01   0.137E-02 -.785E-03 0.286E-03
   0.957E-13 0.775E-01 0.284E+02   0.285E-13 -.899E-01 -.471E+02   0.000E+00 0.222E-01 0.168E+02   -.109E-13 0.607E-04 0.697E-02
 -----------------------------------------------------------------------------------------------
   0.394E-12 -.272E-01 -.121E+02   0.951E-16 -.555E-16 0.000E+00   0.000E+00 0.271E-01 0.121E+02   -.118E-13 0.971E-04 0.783E-02


 POSITION                                       TOTAL-FORCE (eV/Angst)
 -----------------------------------------------------------------------------------
      3.81971      3.97286      4.19666         1.892476      1.091861      0.648786
      3.00000      2.55357      4.19653         0.000000     -2.193637      0.649298
      2.18029      3.97286      4.19666        -1.892476      1.091861      0.648786
      3.00000      3.50001      3.99885         0.000000      0.009915     -1.946871
 -----------------------------------------------------------------------------------
    total drift:                                0.000000      0.000073      0.001618


--------------------------------------------------------------------------------------------------------



  FREE ENERGIE OF THE ION-ELECTRON SYSTEM (eV)
  ---------------------------------------------------
  free  energy   TOTEN  =       -19.23897742 eV

  energy  without entropy=      -19.25057323  energy(sigma->0) =      -19.24284269

 d Force = 0.1111201E-01[ 0.109E-01, 0.113E-01]  d Energy = 0.1110875E-01 0.326E-05
 d Force = 0.3831308E+00[ 0.383E+00, 0.384E+00]  d Ewald  = 0.3831305E+00 0.267E-06


--------------------------------------------------------------------------------------------------------


    POTLOK:  cpu time    0.1406: real time    0.1404


--------------------------------------------------------------------------------------------------------


 NEB: the previous image is higher in energy: F
 NEB: the next image is higher in energy    : T
 NEB: only next energy greater

 NEB: Tangent
 ----------------------------------------------
      0.00170      0.00098     -0.57747
      0.00000     -0.00196     -0.57710
     -0.00170      0.00098     -0.57747
      0.00000      0.00000      0.00339

 NEB: forces: par spring, perp REAL, dneb     0.000029    4.261903    0.000000
 NEB: distance to prev, next image, angle between     0.340559    0.340553  179.567792
 NEB: projections on to tangent (spring, REAL)    -0.000029   -1.117729

 stress matrix after NEB project (eV)
      2.32780      0.00000      0.00000
      0.00000      2.27898     -0.00811
      0.00000     -0.00811     -0.50124
  FORCES: max atom, RMS     2.195831    2.130952
  FORCE total and by dimension    4.261903    2.195827
  Stress total and by dimension    3.296027    2.327802
 
 OPT: Flag T
 OPT: LBFGS Step
 OPT: LBFGS start
 OPT: LBFGS, invcurv =    7.9243111830662512E-003
 OPT: LBFGS, bound:            0
 OPT: LBFGS: positions in Cartesian coordinates
      3.83472225      3.98151908      4.19668436
      3.00000000      2.53617001      4.19656629
      2.16527775      3.98151908      4.19668436
      3.00000000      3.50008484      3.98344898
 OPT: LBFGS END subroutine


--------------------------------------------------------------------------------------------------------


    WAVPRE:  cpu time    0.1094: real time    0.1109
    FEWALD:  cpu time    0.0000: real time    0.0005
    ORTHCH:  cpu time    0.0000: real time    0.0038
     LOOP+:  cpu time    1.3750: real time    1.4624


--------------------------------------- Iteration      3(   1)  ---------------------------------------


    POTLOK:  cpu time    0.1406: real time    0.1432
    SETDIJ:  cpu time    0.0000: real time    0.0035
     EDDAV:  cpu time    0.0469: real time    0.0449
       DOS:  cpu time    0.0000: real time    0.0002
    CHARGE:  cpu time    0.0156: real time    0.0141
    MIXING:  cpu time    0.0000: real time    0.0040
    --------------------------------------------
      LOOP:  cpu time    0.2031: real time    0.2098

 eigenvalue-minimisations  :    16
 total energy-change (2. order) :-0.1191512E+00  (-0.1770168E+00)
 number of electron       8.0000046 magnetization 
 augmentation part        0.3249255 magnetization 

 Broyden mixing:
  rms(total) = 0.58187E-01    rms(broyden)= 0.58031E-01
  rms(prec ) = 0.82608E-01
  weight for this iteration     100.00

 Free energy of the ion-electron system (eV)
  ---------------------------------------------------
  alpha Z        PSCENC =         0.68708806
  Ewald energy   TEWEN  =        63.39934947
  -Hartree energ DENC   =      -315.92800908
  -exchange      EXHF   =         0.00000000
  -V(xc)+E(xc)   XCENC  =        29.25985181
  PAW double counting   =       646.82041629     -648.49620621
  entropy T*S    EENTRO =         0.01159581
  eigenvalues    EBANDS =       -97.02311484
  atomic energy  EATOM  =       301.91090041
  Solvation  Ediel_sol  =         0.00000000
  ---------------------------------------------------
  free energy    TOTEN  =       -19.35812830 eV

  energy without entropy =      -19.36972411  energy(sigma->0) =      -19.36199357


--------------------------------------------------------------------------------------------------------




--------------------------------------- Iteration      3(   2)  ---------------------------------------


    POTLOK:  cpu time    0.1406: real time    0.1332
    SETDIJ:  cpu time    0.0000: real time    0.0049
     EDDAV:  cpu time    0.0625: real time    0.0607
       DOS:  cpu time    0.0000: real time    0.0009
    CHARGE:  cpu time    0.0156: real time    0.0211
    MIXING:  cpu time    0.0000: real time    0.0056
    --------------------------------------------
      LOOP:  cpu time    0.2188: real time    0.2263

 eigenvalue-minimisations  :    24
 total energy-change (2. order) : 0.7845822E-02  (-0.4277707E-02)
 number of electron       8.0000046 magnetization 
 augmentation part        0.3284935 magnetization 

 Broyden mixing:
  rms(total) = 0.26983E-01    rms(broyden)= 0.26953E-01
  rms(prec ) = 0.31497E-01
  weight for this iteration     100.00

 eigenvalues of (default mixing * dielectric matrix)
  average eigenvalue GAMMA=   1.0626
  1.0626

 Free energy of the ion-electron system (eV)
  ---------------------------------------------------
  alpha Z        PSCENC =         0.68708806
  Ewald energy   TEWEN  =        63.39934947
  -Hartree energ DENC   =      -314.69986110
  -exchange      EXHF   =         0.00000000
  -V(xc)+E(xc)   XCENC  =        29.19032614
  PAW double counting   =       638.44456329     -640.10170768
  entropy T*S    EENTRO =         0.01159581
  eigenvalues    EBANDS =       -98.19253687
  atomic energy  EATOM  =       301.91090041
[...]
  entropy T*S    EENTRO =         0.01159581
  eigenvalues    EBANDS =       -97.15745133
  atomic energy  EATOM  =       301.91090041
  Solvation  Ediel_sol  =         0.00000000
  ---------------------------------------------------
  free energy    TOTEN  =       -19.49161841 eV

  energy without entropy =      -19.50321422  energy(sigma->0) =      -19.49548368


--------------------------------------------------------------------------------------------------------




--------------------------------------- Iteration     23(   6)  ---------------------------------------


    POTLOK:  cpu time    0.1406: real time    0.1320
    SETDIJ:  cpu time    0.0000: real time    0.0040
     EDDAV:  cpu time    0.0625: real time    0.0618
       DOS:  cpu time    0.0000: real time    0.0003
    CHARGE:  cpu time    0.0156: real time    0.0101
    MIXING:  cpu time    0.0000: real time    0.0053
    --------------------------------------------
      LOOP:  cpu time    0.2188: real time    0.2135

 eigenvalue-minimisations  :    32
 total energy-change (2. order) :-0.4950254E-05  (-0.8056049E-07)
 number of electron       8.0000054 magnetization 
 augmentation part        0.2982023 magnetization 

 Broyden mixing:
  rms(total) = 0.21382E-03    rms(broyden)= 0.21370E-03
  rms(prec ) = 0.46077E-03
  weight for this iteration     100.00

 eigenvalues of (default mixing * dielectric matrix)
  average eigenvalue GAMMA=   1.6224
  2.5345  2.0094  0.9307  1.1253  1.5119

 Free energy of the ion-electron system (eV)
  ---------------------------------------------------
  alpha Z        PSCENC =         0.68708806
  Ewald energy   TEWEN  =        56.05608451
  -Hartree energ DENC   =      -308.29989256
  -exchange      EXHF   =         0.00000000
  -V(xc)+E(xc)   XCENC  =        28.84762036
  PAW double counting   =       570.49023155     -572.03951031
  entropy T*S    EENTRO =         0.01159581
  eigenvalues    EBANDS =       -97.15574120
  atomic energy  EATOM  =       301.91090041
  Solvation  Ediel_sol  =         0.00000000
  ---------------------------------------------------
  free energy    TOTEN  =       -19.49162336 eV

  energy without entropy =      -19.50321917  energy(sigma->0) =      -19.49548863


--------------------------------------------------------------------------------------------------------




--------------------------------------- Iteration     23(   7)  ---------------------------------------


    POTLOK:  cpu time    0.1250: real time    0.1231
    SETDIJ:  cpu time    0.0000: real time    0.0042
     EDDAV:  cpu time    0.0312: real time    0.0275
       DOS:  cpu time    0.0000: real time    0.0002
    CHARGE:  cpu time    0.0000: real time    0.0076
    MIXING:  cpu time    0.0000: real time    0.0035
    --------------------------------------------
      LOOP:  cpu time    0.1562: real time    0.1661

 eigenvalue-minimisations  :    16
 total energy-change (2. order) :-0.8745441E-05  (-0.1295529E-06)
 number of electron       8.0000054 magnetization 
 augmentation part        0.2982174 magnetization 

 Broyden mixing:
  rms(total) = 0.98567E-04    rms(broyden)= 0.98540E-04
  rms(prec ) = 0.24161E-03
  weight for this iteration     100.00

 eigenvalues of (default mixing * dielectric matrix)
  average eigenvalue GAMMA=   1.6671
  2.5288  2.5288  0.8740  1.1240  1.4735  1.4735

 Free energy of the ion-electron system (eV)
  ---------------------------------------------------
  alpha Z        PSCENC =         0.68708806
  Ewald energy   TEWEN  =        56.05608451
  -Hartree energ DENC   =      -308.30087053
  -exchange      EXHF   =         0.00000000
  -V(xc)+E(xc)   XCENC  =        28.84764128
  PAW double counting   =       570.43487220     -571.98405504
  entropy T*S    EENTRO =         0.01159581
  eigenvalues    EBANDS =       -97.15488881
  atomic energy  EATOM  =       301.91090041
  Solvation  Ediel_sol  =         0.00000000
  ---------------------------------------------------
  free energy    TOTEN  =       -19.49163211 eV

  energy without entropy =      -19.50322792  energy(sigma->0) =      -19.49549738


--------------------------------------------------------------------------------------------------------




--------------------------------------- Iteration     23(   8)  ---------------------------------------


    POTLOK:  cpu time    0.1406: real time    0.1201
    SETDIJ:  cpu time    0.0000: real time    0.0029
     EDDAV:  cpu time    0.0312: real time    0.0316
       DOS:  cpu time    0.0000: real time    0.0003
    CHARGE:  cpu time    0.0000: real time    0.0086
    MIXING:  cpu time    0.0156: real time    0.0035
    --------------------------------------------
      LOOP:  cpu time    0.1875: real time    0.1669

 eigenvalue-minimisations  :    16
 total energy-change (2. order) :-0.5928373E-05  (-0.1113204E-06)
 number of electron       8.0000054 magnetization 
 augmentation part        0.2982031 magnetization 

 Broyden mixing:
  rms(total) = 0.72134E-04    rms(broyden)= 0.72095E-04
  rms(prec ) = 0.13142E-03
  weight for this iteration     100.00

 eigenvalues of (default mixing * dielectric matrix)
  average eigenvalue GAMMA=   1.7198
  3.5827  2.5609  1.7707  1.2524  1.1012  0.9627  0.8081

 Free energy of the ion-electron system (eV)
  ---------------------------------------------------
  alpha Z        PSCENC =         0.68708806
  Ewald energy   TEWEN  =        56.05608451
  -Hartree energ DENC   =      -308.30590992
  -exchange      EXHF   =         0.00000000
  -V(xc)+E(xc)   XCENC  =        28.84788224
  PAW double counting   =       570.41911074     -571.96829315
  entropy T*S    EENTRO =         0.01159581
  eigenvalues    EBANDS =       -97.15009674
  atomic energy  EATOM  =       301.91090041
  Solvation  Ediel_sol  =         0.00000000
  ---------------------------------------------------
  free energy    TOTEN  =       -19.49163804 eV

  energy without entropy =      -19.50323385  energy(sigma->0) =      -19.49550331


--------------------------------------------------------------------------------------------------------




--------------------------------------- Iteration     23(   9)  ---------------------------------------


    POTLOK:  cpu time    0.1094: real time    0.1206
    SETDIJ:  cpu time    0.0000: real time    0.0041
     EDDAV:  cpu time    0.0469: real time    0.0385
       DOS:  cpu time    0.0000: real time    0.0001
    CHARGE:  cpu time    0.0156: real time    0.0112
    MIXING:  cpu time    0.0000: real time    0.0042
    --------------------------------------------
      LOOP:  cpu time    0.1719: real time    0.1787

 eigenvalue-minimisations  :    24
 total energy-change (2. order) :-0.1218948E-05  (-0.1188287E-07)
 number of electron       8.0000054 magnetization 
 augmentation part        0.2982081 magnetization 

 Broyden mixing:
  rms(total) = 0.52784E-04    rms(broyden)= 0.52782E-04
  rms(prec ) = 0.81817E-04
  weight for this iteration     100.00

 eigenvalues of (default mixing * dielectric matrix)
  average eigenvalue GAMMA=   1.9159
  4.5354  2.4022  2.4022  1.9384  1.0557  1.0557  0.9097  1.0280

 Free energy of the ion-electron system (eV)
  ---------------------------------------------------
  alpha Z        PSCENC =         0.68708806
  Ewald energy   TEWEN  =        56.05608451
  -Hartree energ DENC   =      -308.30531041
  -exchange      EXHF   =         0.00000000
  -V(xc)+E(xc)   XCENC  =        28.84784298
  PAW double counting   =       570.41154150     -571.96070748
  entropy T*S    EENTRO =         0.01159581
  eigenvalues    EBANDS =       -97.15067464
  atomic energy  EATOM  =       301.91090041
  Solvation  Ediel_sol  =         0.00000000
  ---------------------------------------------------
  free energy    TOTEN  =       -19.49163926 eV

  energy without entropy =      -19.50323507  energy(sigma->0) =      -19.49550453


--------------------------------------------------------------------------------------------------------




--------------------------------------- Iteration     23(  10)  ---------------------------------------


    POTLOK:  cpu time    0.1250: real time    0.1292
    SETDIJ:  cpu time    0.0000: real time    0.0043
     EDDAV:  cpu time    0.0312: real time    0.0292
       DOS:  cpu time    0.0000: real time    0.0001
    CHARGE:  cpu time    0.0156: real time    0.0082
    MIXING:  cpu time    0.0000: real time    0.0053
    --------------------------------------------
      LOOP:  cpu time    0.1719: real time    0.1764

 eigenvalue-minimisations  :    16
 total energy-change (2. order) :-0.1286157E-05  (-0.2431631E-07)
 number of electron       8.0000054 magnetization 
 augmentation part        0.2982103 magnetization 

 Broyden mixing:
  rms(total) = 0.14242E-04    rms(broyden)= 0.14232E-04
  rms(prec ) = 0.25799E-04
  weight for this iteration     100.00

 eigenvalues of (default mixing * dielectric matrix)
  average eigenvalue GAMMA=   1.9990
  5.7645  2.5909  2.3982  1.9296  1.2078  1.0994  1.0994  0.8960  1.0047

 Free energy of the ion-electron system (eV)
  ---------------------------------------------------
  alpha Z        PSCENC =         0.68708806
  Ewald energy   TEWEN  =        56.05608451
  -Hartree energ DENC   =      -308.30454013
  -exchange      EXHF   =         0.00000000
  -V(xc)+E(xc)   XCENC  =        28.84780841
  PAW double counting   =       570.42255412     -571.97173830
  entropy T*S    EENTRO =         0.01159581
  eigenvalues    EBANDS =       -97.15139343
  atomic energy  EATOM  =       301.91090041
  Solvation  Ediel_sol  =         0.00000000
  ---------------------------------------------------
  free energy    TOTEN  =       -19.49164054 eV

  energy without entropy =      -19.50323635  energy(sigma->0) =      -19.49550581


--------------------------------------------------------------------------------------------------------




--------------------------------------- Iteration     23(  11)  ---------------------------------------


    POTLOK:  cpu time    0.1250: real time    0.1240
    SETDIJ:  cpu time    0.0000: real time    0.0035
     EDDAV:  cpu time    0.0469: real time    0.0464
       DOS:  cpu time    0.0000: real time    0.0002
    --------------------------------------------
      LOOP:  cpu time    0.1719: real time    0.1741

 eigenvalue-minimisations  :    24
 total energy-change (2. order) :-0.1174753E-06  (-0.1040773E-08)
 number of electron       8.0000054 magnetization 
 augmentation part        0.2982103 magnetization 

 Free energy of the ion-electron system (eV)
  ---------------------------------------------------
  alpha Z        PSCENC =         0.68708806
  Ewald energy   TEWEN  =        56.05608451
  -Hartree energ DENC   =      -308.30453536
  -exchange      EXHF   =         0.00000000
  -V(xc)+E(xc)   XCENC  =        28.84780876
  PAW double counting   =       570.42382240     -571.97300757
  entropy T*S    EENTRO =         0.01159581
  eigenvalues    EBANDS =       -97.15139767
  atomic energy  EATOM  =       301.91090041
  Solvation  Ediel_sol  =         0.00000000
  ---------------------------------------------------
  free energy    TOTEN  =       -19.49164066 eV

  energy without entropy =      -19.50323647  energy(sigma->0) =      -19.49550593


--------------------------------------------------------------------------------------------------------




 average (electrostatic) potential at core
  the test charge radii are     0.5201  0.7089
  (the norm of the test charge is              1.0000)
       1 -42.9122       2 -42.9091       3 -42.9122       4 -72.5498



 E-fermi :  -5.7149     XC(G=0):  -1.6749     alpha+bet : -0.5051


 k-point     1 :       0.0000    0.0000    0.0000
  band No.  band energies     occupation 
      1     -20.8496      2.00000
      2     -10.9234      2.00000
      3     -10.9194      2.00000
      4      -5.8833      2.00000
      5      -1.1364     -0.00000
      6       1.4665      0.00000
      7       1.6387      0.00000
      8       1.7674      0.00000


--------------------------------------------------------------------------------------------------------


 soft charge-density along one line, spin component           1
         0         1         2         3         4         5         6         7         8         9
 total charge-density along one line

 pseudopotential strength for first ion, spin component:           1
 -2.360  -4.070   0.001   0.001   0.002
 -4.070  -6.934   0.003   0.002   0.006
  0.001   0.003  -0.330   0.001   0.003
  0.001   0.002   0.001  -0.331   0.002
  0.002   0.006   0.003   0.002  -0.327
 total augmentation occupancy for first ion, spin component:           1
  3.853  -0.774  -0.269  -0.214  -0.467
 -0.774   0.182   0.055   0.047   0.095
 -0.269   0.055   0.030   0.011   0.027
 -0.214   0.047   0.011   0.036   0.020
 -0.467   0.095   0.027   0.020   0.062


------------------------ aborting loop because EDIFF is reached ----------------------------------------


    CHARGE:  cpu time    0.0156: real time    0.0132
    FORLOC:  cpu time    0.0156: real time    0.0100
    FORNL :  cpu time    0.0156: real time    0.0118
    STRESS:  cpu time    0.0625: real time    0.0588
    FORCOR:  cpu time    0.1094: real time    0.1128
    FORHAR:  cpu time    0.0312: real time    0.0344
    MIXING:  cpu time    0.0000: real time    0.0040
    OFIELD:  cpu time    0.0000: real time    0.0000

  FORCE on cell =-STRESS in cart. coord.  units (eV):
  Direction    XX          YY          ZZ          XY          YZ          ZX
  --------------------------------------------------------------------------------------
  Alpha Z     0.68709     0.68709     0.68709
  Ewald      71.41300    43.00526   -58.36220     0.00000     0.12211    -0.00000
  Hartree   133.84880   107.41504    67.04038    -0.00000     0.04132    -0.00000
  E(xc)     -30.76152   -30.76225   -31.00903    -0.00000     0.00016    -0.00000
  Local    -274.90758  -220.06134   -98.97750    -0.00000    -0.13270     0.00000
  n-local   -21.82134   -21.80143   -23.79955    -0.00000     0.00346    -0.00000
  augment     1.18822     1.18731     1.76569     0.00000    -0.00126    -0.00000
  Kinetic   119.73721   119.63535   141.84371    -0.00000    -0.03946     0.00000
  Fock        0.00000     0.00000     0.00000     0.00000     0.00000     0.00000
  -------------------------------------------------------------------------------------
  Total      -0.61612    -0.69497    -0.81140     0.00000    -0.00637     0.00000
  in kB      -2.93791    -3.31387    -3.86908     0.00000    -0.03037     0.00000
  external pressure =       -3.37 kB  Pullay stress =        0.00 kB


 VOLUME and BASIS-vectors are now :
 -----------------------------------------------------------------------------
  energy-cutoff  :      400.00
  volume of cell :      336.00
      direct lattice vectors                 reciprocal lattice vectors
     6.000000000  0.000000000  0.000000000     0.166666667  0.000000000  0.000000000
     0.000000000  7.000000000  0.000000000     0.000000000  0.142857143  0.000000000
     0.000000000  0.000000000  8.000000000     0.000000000  0.000000000  0.125000000

  length of vectors
     6.000000000  7.000000000  8.000000000     0.166666667  0.142857143  0.125000000


 FORCES acting on ions
    electron-ion (+dipol)            ewald-force                    non-local-force                 convergence-correction
 -----------------------------------------------------------------------------------------------
   -.552E+02 -.325E+02 -.238E+02   0.610E+02 0.358E+02 0.263E+02   -.573E+01 -.330E+01 -.252E+01   -.109E-04 -.127E-04 -.116E-04
   0.135E-13 0.649E+02 -.237E+02   -.471E-15 -.715E+02 0.262E+02   0.000E+00 0.661E+01 -.250E+01   0.211E-14 0.121E-04 -.116E-04
   0.552E+02 -.325E+02 -.238E+02   -.610E+02 0.358E+02 0.263E+02   0.573E+01 -.330E+01 -.252E+01   0.109E-04 -.127E-04 -.116E-04
   0.105E-12 0.717E-01 0.493E+02   0.720E-14 -.552E-01 -.788E+02   0.000E+00 -.167E-01 0.295E+02   0.158E-13 -.408E-04 0.321E-04
 -----------------------------------------------------------------------------------------------
   0.311E-12 0.102E-01 -.220E+02   0.951E-16 -.716E-14 0.000E+00   0.000E+00 -.990E-02 0.220E+02   0.186E-13 -.540E-04 -.280E-05


 POSITION                                       TOTAL-FORCE (eV/Angst)
 -----------------------------------------------------------------------------------
      3.81856      3.97226      4.19283         0.008815      0.005492     -0.000661
      3.00000      2.55448      4.19134         0.000000     -0.010764      0.000700
      2.18144      3.97226      4.19283        -0.008815      0.005492     -0.000661
      3.00000      3.50031      3.79989         0.000000     -0.000219      0.000623
 -----------------------------------------------------------------------------------
    total drift:                                0.000000      0.000216      0.000620


--------------------------------------------------------------------------------------------------------



  FREE ENERGIE OF THE ION-ELECTRON SYSTEM (eV)
  ---------------------------------------------------
  free  energy   TOTEN  =       -19.49164066 eV

  energy  without entropy=      -19.50323647  energy(sigma->0) =      -19.49550593

 d Force = 0.1668429E-02[ 0.156E-03, 0.318E-02]  d Energy = 0.1659485E-02 0.894E-05
 d Force =-0.1733447E+00[-0.152E+00,-0.195E+00]  d Ewald  =-0.1733841E+00 0.394E-04


--------------------------------------------------------------------------------------------------------


    POTLOK:  cpu time    0.1094: real time    0.1032


--------------------------------------------------------------------------------------------------------


 NEB: the previous image is higher in energy: F
 NEB: the next image is higher in energy    : T
 NEB: only next energy greater

 NEB: Tangent
 ----------------------------------------------
      0.12979      0.07456     -0.47929
      0.00000     -0.14880     -0.47558
     -0.12979      0.07456     -0.47929
      0.00000     -0.00032      0.49742

 NEB: forces: par spring, perp REAL, dneb     0.004640    0.017467    0.000000
 NEB: distance to prev, next image, angle between     0.401405    0.402333  118.031494
 NEB: projections on to tangent (spring, REAL)     0.004640    0.005320

 stress matrix after NEB project (eV)
     -0.61612      0.00000      0.00000
      0.00000     -0.69497     -0.00637
      0.00000     -0.00637     -0.81140
  FORCES: max atom, RMS     0.010712    0.009037
  FORCE total and by dimension    0.018073    0.010663
  Stress total and by dimension    1.233306    0.811403
 OPT: skip step - force has converged


--------------------------------------------------------------------------------------------------------


  
 reached required accuracy - stopping structural energy minimisation
 writing wavefunctions
     LOOP+:  cpu time    2.5156: real time    2.5419
    4ORBIT:  cpu time    0.0000: real time    0.0000

 total amount of memory used by VASP MPI-rank0    49277. kBytes
=======================================================================

   base      :      30000. kBytes
   nonl-proj :       1166. kBytes
   fftplans  :       6115. kBytes
   grid      :      11594. kBytes
   one-center:         12. kBytes
   wavefun   :        390. kBytes

  
  
 General timing and accounting informations for this job:
 ========================================================
  
                  Total CPU time used (sec):       58.719
                            User time (sec):       53.703
                          System time (sec):        5.016
                         Elapsed time (sec):       59.237
  
                   Maximum memory used (kb):       54516.
                   Average memory used (kb):           0.
  
                          Minor page faults:       958744
                          Major page faults:            0
                 Voluntary context switches:            0
