unknown system                          
   1.00000000000000     
     2.700000    0.000000    2.700000
     2.700000    2.700000    0.000000
     0.000000    2.700000    2.700000
   Si
     2
Direct
  0.000000  0.000000  0.000000
  0.250000  0.250000  0.250000
 
   28   28   28
 -.77617044608E+01 -.55654621503E+01 0.13500845812E+00 0.71375387112E+01 0.13029284709E+02
 0.16275798549E+02 0.16715166356E+02 0.15296748197E+02 0.13301335598E+02 0.11374194266E+02
 0.97263626511E+01 0.84356642536E+01 0.75145074184E+01 0.69604144233E+01 0.67749935846E+01
 0.69604050375E+01 0.75144788831E+01 0.84356177861E+01 0.97263233367E+01 0.11374195050E+02
 0.13301383095E+02 0.15296802584E+02 0.16715163686E+02 0.16275709055E+02 0.13029153235E+02
 0.71374507235E+01 0.13500340637E+00 -.55654304750E+01 -.55654621503E+01 -.13538730821E+01
 0.53677534584E+01 0.12089079405E+02 0.16716963621E+02 0.18422263124E+02 0.17713739951E+02
 0.15848483446E+02 0.13835113668E+02 0.12012050036E+02 0.10507685766E+02 0.93575068386E+01
 0.85728686423E+01 0.81717301952E+01 0.81717477431E+01 0.85729027907E+01 0.93575173308E+01
 0.10507642363E+02 0.12011959178E+02 0.13835025652E+02 0.15848468158E+02 0.17713828654E+02
 0.18422398155E+02 0.16717019996E+02 0.12088963334E+02 0.53674920442E+01 -.13541386646E+01
 -.55655732706E+01 0.13500845812E+00 0.53677534584E+01 0.11688987780E+02 0.16842104943E+02
 0.19476081095E+02 0.19562125322E+02 0.18069443678E+02 0.16143738535E+02 0.14283935790E+02
 0.12666143726E+02 0.11348271246E+02 0.10354798038E+02 0.97251027646E+01 0.95076940596E+01
 0.97251512347E+01 0.10354858788E+02 0.11348295208E+02 0.12666097670E+02 0.14283827516E+02
 0.16143629930E+02 0.18069423036E+02 0.19562229872E+02 0.19476235584E+02 0.16842161800E+02
 0.11688856698E+02 0.53674974490E+01 0.13480533709E+00 -.18965418443E+01 0.71375387112E+01
 0.12089079405E+02 0.16842104943E+02 0.19830025566E+02 0.20562014118E+02 0.19599344495E+02
 0.17964276854E+02 0.16253465606E+02 0.14676989268E+02 0.13307673538E+02 0.12175393114E+02
 0.11337378313E+02 0.10883051124E+02 0.10883078500E+02 0.11337438362E+02 0.12175439048E+02
 0.13307670558E+02 0.14676934461E+02 0.16253388141E+02 0.17964225398E+02 0.19599357502E+02
 0.20562083236E+02 0.19830093196E+02 0.16842112143E+02 0.12089019122E+02 0.71374601703E+01
 0.39730571343E+01 0.39730922681E+01 0.13029284709E+02 0.16716963621E+02 0.19476081095E+02
 0.20562014118E+02 0.20145661464E+02 0.18974666922E+02 0.17605125760E+02 0.16253467360E+02
 0.14993176705E+02 0.13844773557E+02 0.12867476408E+02 0.12186859670E+02 0.11940038309E+02
 0.12186926221E+02 0.12867549169E+02 0.13844785209E+02 0.14993109860E+02 0.16253368098E+02
 0.17605067428E+02 0.18974692277E+02 0.20145746936E+02 0.20562089886E+02 0.19476093539E+02
 0.16716918099E+02 0.13029225859E+02 0.98517352604E+01 0.85970391350E+01 0.98517707501E+01
 0.16275798549E+02 0.18422263124E+02 0.19562125322E+02 0.19599344495E+02 0.18974666922E+02
 0.18087810139E+02 0.17125007713E+02 0.16143739540E+02 0.15138367225E+02 0.14144689169E+02
 0.13297372132E+02 0.12794067187E+02 0.12794120320E+02 0.13297492797E+02 0.14144784542E+02
 0.15138350951E+02 0.16143598472E+02 0.17124827004E+02 0.18087719945E+02 0.18974736475E+02
 0.19599515458E+02 0.19562255774E+02 0.18422247297E+02 0.16275650089E+02 0.13875946691E+02
 0.12290709509E+02 0.12290782549E+02 0.13876116885E+02 0.16715166356E+02 0.17713739951E+02
 0.18069443678E+02 0.17964276854E+02 0.17605125760E+02 0.17125007713E+02 0.16553494720E+02
 0.15848479533E+02 0.14997420334E+02 0.14089824753E+02 0.13353698155E+02 0.13066834116E+02
 0.13353772055E+02 0.14089949358E+02 0.14997528390E+02 0.15848476795E+02 0.16553337133E+02
 0.17124770791E+02 0.17604968686E+02 0.17964307876E+02 0.18069613377E+02 0.17713879358E+02
 0.16715140761E+02 0.15277183347E+02 0.13983154512E+02 0.13461952787E+02 0.13983310151E+02
 0.15277351637E+02 0.15296748197E+02 0.15848483446E+02 0.16143738535E+02 0.16253465606E+02
 0.16253467360E+02 0.16143739540E+02 0.15848479533E+02 0.15296743924E+02 0.14494195446E+02
 0.13631975554E+02 0.13062588917E+02 0.13062569966E+02 0.13631960718E+02 0.14494252304E+02
 0.15296861786E+02 0.15848550989E+02 0.16143660007E+02 0.16253251558E+02 0.16253249167E+02
 0.16143657099E+02 0.15848551851E+02 0.15296862255E+02 0.14494248391E+02 0.13631957140E+02
 0.13062571453E+02 0.13062591459E+02 0.13631974818E+02 0.14494195338E+02 0.13301335598E+02
 0.13835113668E+02 0.14283935790E+02 0.14676989268E+02 0.14993176705E+02 0.15138367225E+02
 0.14997420334E+02 0.14494195446E+02 0.13710237496E+02 0.12977138408E+02 0.12676976906E+02
 0.12977019332E+02 0.13710114520E+02 0.14494188678E+02 0.14997542055E+02 0.15138510569E+02
 0.14993209067E+02 0.14676865545E+02 0.14283732345E+02 0.13834961848E+02 0.13301318265E+02
 0.12675380154E+02 0.12034147780E+02 0.11534667250E+02 0.11343135576E+02 0.11534578455E+02
 0.12034012605E+02 0.12675279908E+02 0.11374194266E+02 0.12012050036E+02 0.12666143726E+02
 0.13307673538E+02 0.13844773557E+02 0.14144689169E+02 0.14089824753E+02 0.13631975554E+02
 0.12977138408E+02 0.12503292680E+02 0.12503234224E+02 0.12977004083E+02 0.13631856703E+02
 0.14089796347E+02 0.14144763840E+02 0.13844898551E+02 0.13307764736E+02 0.12666141148E+02
 0.12011961927E+02 0.11374092371E+02 0.10750942971E+02 0.10162776664E+02 0.96797953170E+01
 0.94015976249E+01 0.94015634285E+01 0.96797236221E+01 0.10162736090E+02 0.10750982561E+02
 0.97263626511E+01 0.10507685766E+02 0.11348271246E+02 0.12175393114E+02 0.12867476408E+02
 0.13297372132E+02 0.13353698155E+02 0.13062588917E+02 0.12676976906E+02 0.12503234224E+02
 0.12676947562E+02 0.13062547292E+02 0.13353658211E+02 0.13297339951E+02 0.12867465597E+02
 0.12175422883E+02 0.11348341230E+02 0.10507763548E+02 0.97264073270E+01 0.90288264318E+01
 0.84229638742E+01 0.79323168078E+01 0.76038491767E+01 0.74872413867E+01 0.76038877410E+01
 0.79323743556E+01 0.84230102461E+01 0.90288331245E+01 0.84356642536E+01 0.93575068386E+01
 0.10354798038E+02 0.11337378313E+02 0.12186859670E+02 0.12794067187E+02 0.13066834116E+02
 0.13062569966E+02 0.12977019332E+02 0.12977004083E+02 0.13062547292E+02 0.13066837983E+02
 0.12794089426E+02 0.12186858429E+02 0.11337334543E+02 0.10354745333E+02 0.93574989964E+01
 0.84357201455E+01 0.76347905642E+01 0.69679084333E+01 0.64405397370E+01 0.60673598666E+01
 0.58717055026E+01 0.58717415985E+01 0.60674303861E+01 0.64405713224E+01 0.69678665127E+01
 0.76347088713E+01 0.75145074184E+01 0.85728686423E+01 0.97251027646E+01 0.10883051124E+02
 0.11940038309E+02 0.12794120320E+02 0.13353772055E+02 0.13631960718E+02 0.13710114520E+02
 0.13631856703E+02 0.13353658211E+02 0.12794089426E+02 0.11940095704E+02 0.10883121033E+02
 0.97251072214E+01 0.85727975215E+01 0.75144205404E+01 0.66020137817E+01 0.58537674118E+01
 0.52694229216E+01 0.48464919377E+01 0.45881138552E+01 0.45008798878E+01 0.45881180089E+01
 0.48464710259E+01 0.52693734392E+01 0.58537358300E+01 0.66020476065E+01 0.69604144233E+01
 0.81717301952E+01 0.95076940596E+01 0.10883078500E+02 0.12186926221E+02 0.13297492797E+02
 0.14089949358E+02 0.14494252304E+02 0.14494188678E+02 0.14089796347E+02 0.13297339951E+02
 0.12186858429E+02 0.10883121033E+02 0.95077942895E+01 0.81717951978E+01 0.69603860895E+01
 0.59239713174E+01 0.50801388077E+01 0.44246162019E+01 0.39447489511E+01 0.36294054032E+01
 0.34726606102E+01 0.34726435766E+01 0.36293638410E+01 0.39447159169E+01 0.44246366901E+01
 0.50802238693E+01 0.59240673541E+01 0.67749935846E+01 0.81717477431E+01 0.97251512347E+01
 0.11337438362E+02 0.12867549169E+02 0.14144784542E+02 0.14997528390E+02 0.15296861786E+02
 0.14997542055E+02 0.14144763840E+02 0.12867465597E+02 0.11337334543E+02 0.97251072214E+01
 0.81717951978E+01 0.67750793363E+01 0.55882483305E+01 0.46274711102E+01 0.38838443111E+01
 0.33364453175E+01 0.29629118631E+01 0.27457219423E+01 0.26744462074E+01 0.27457179191E+01
 0.29629219562E+01 0.33364864596E+01 0.38839026602E+01 0.46274976845E+01 0.55882050398E+01
 0.69604050375E+01 0.85729027907E+01 0.10354858788E+02 0.12175439048E+02 0.13844785209E+02
 0.15138350951E+02 0.15848476795E+02 0.15848550989E+02 0.15138510569E+02 0.13844898551E+02
 0.12175422883E+02 0.10354745333E+02 0.85727975215E+01 0.69603860895E+01 0.55882483305E+01
 0.44786789707E+01 0.36213092301E+01 0.29885211939E+01 0.25480090720E+01 0.22712546122E+01
 0.21380249142E+01 0.21380397524E+01 0.22712907225E+01 0.25480441860E+01 0.29885269746E+01
 0.36212664054E+01 0.44785999795E+01 0.55881871552E+01 0.75144788831E+01 0.93575173308E+01
 0.11348295208E+02 0.13307670558E+02 0.14993109860E+02 0.16143598472E+02 0.16553337133E+02
 0.16143660007E+02 0.14993209067E+02 0.13307764736E+02 0.11348341230E+02 0.93574989964E+01
 0.75144205404E+01 0.59239713174E+01 0.46274711102E+01 0.36213092301E+01 0.28756542650E+01
 0.23502505077E+01 0.20060400594E+01 0.18122712575E+01 0.17498308402E+01 0.18122841017E+01
 0.20060416470E+01 0.23502201468E+01 0.28756006724E+01 0.36212679652E+01 0.46274752394E+01
 0.59240211302E+01 0.84356177861E+01 0.10507642363E+02 0.12666097670E+02 0.14676934461E+02
 0.16253368098E+02 0.17124827004E+02 0.17124770791E+02 0.16253251558E+02 0.14676865545E+02
 0.12666141148E+02 0.10507763548E+02 0.84357201455E+01 0.66020137817E+01 0.50801388077E+01
 0.38838443111E+01 0.29885211939E+01 0.23502505077E+01 0.19210325894E+01 0.16593432679E+01
 0.15359146288E+01 0.15359049523E+01 0.16593132758E+01 0.19209894631E+01 0.23502218771E+01
 0.29885399145E+01 0.38839095560E+01 0.50801975163E+01 0.66019985436E+01 0.97263233367E+01
 0.12011959178E+02 0.14283827516E+02 0.16253388141E+02 0.17605067428E+02 0.18087719945E+02
 0.17604968686E+02 0.16253249167E+02 0.14283732345E+02 0.12011961927E+02 0.97264073270E+01
 0.76347905642E+01 0.58537674118E+01 0.44246162019E+01 0.33364453175E+01 0.25480090720E+01
 0.20060400594E+01 0.16593432679E+01 0.14678278562E+01 0.14067395757E+01 0.14678056561E+01
 0.16593182449E+01 0.20060396195E+01 0.25480477758E+01 0.33365053344E+01 0.44246497827E+01
 0.58537330916E+01 0.76346981410E+01 0.11374195050E+02 0.13835025652E+02 0.16143629930E+02
 0.17964225398E+02 0.18974692277E+02 0.18974736475E+02 0.17964307876E+02 0.16143657099E+02
 0.13834961848E+02 0.11374092371E+02 0.90288264318E+01 0.69679084333E+01 0.52694229216E+01
 0.39447489511E+01 0.29629118631E+01 0.22712546122E+01 0.18122712575E+01 0.15359146288E+01
 0.14067395757E+01 0.14067400372E+01 0.15359230848E+01 0.18122960232E+01 0.22712851511E+01
 0.29629218749E+01 0.39447241294E+01 0.52693850585E+01 0.69679061273E+01 0.90288909094E+01
 0.13301383095E+02 0.15848468158E+02 0.18069423036E+02 0.19599357502E+02 0.20145746936E+02
 0.19599515458E+02 0.18069613377E+02 0.15848551851E+02 0.13301318265E+02 0.10750942971E+02
 0.84229638742E+01 0.64405397370E+01 0.48464919377E+01 0.36294054032E+01 0.27457219423E+01
 0.21380249142E+01 0.17498308402E+01 0.15359049523E+01 0.14678056561E+01 0.15359230848E+01
 0.17498618447E+01 0.21380473189E+01 0.27457081612E+01 0.36293561278E+01 0.48464532140E+01
 0.64405714157E+01 0.84230819657E+01 0.10751087510E+02 0.15296802584E+02 0.17713828654E+02
 0.19562229872E+02 0.20562083236E+02 0.20562089886E+02 0.19562255774E+02 0.17713879358E+02
 0.15296862255E+02 0.12675380154E+02 0.10162776664E+02 0.79323168078E+01 0.60673598666E+01
 0.45881138552E+01 0.34726606102E+01 0.26744462074E+01 0.21380397524E+01 0.18122841017E+01
 0.16593132758E+01 0.16593182449E+01 0.18122960232E+01 0.21380473189E+01 0.26744364784E+01
 0.34726396743E+01 0.45881105146E+01 0.60673925110E+01 0.79323634375E+01 0.10162792947E+02
 0.12675346980E+02 0.16715163686E+02 0.18422398155E+02 0.19476235584E+02 0.19830093196E+02
 0.19476093539E+02 0.18422247297E+02 0.16715140761E+02 0.14494248391E+02 0.12034147780E+02
 0.96797953170E+01 0.76038491767E+01 0.58717055026E+01 0.45008798878E+01 0.34726435766E+01
 0.27457179191E+01 0.22712907225E+01 0.20060416470E+01 0.19209894631E+01 0.20060396195E+01
 0.22712851511E+01 0.27457081612E+01 0.34726396743E+01 0.45009007198E+01 0.58717467305E+01
 0.76038590822E+01 0.96797151585E+01 0.12033994089E+02 0.14494129964E+02 0.16275709055E+02
 0.16717019996E+02 0.16842161800E+02 0.16842112143E+02 0.16716918099E+02 0.16275650089E+02
 0.15277183347E+02 0.13631957140E+02 0.11534667250E+02 0.94015976249E+01 0.74872413867E+01
 0.58717415985E+01 0.45881180089E+01 0.36293638410E+01 0.29629219562E+01 0.25480441860E+01
 0.23502201468E+01 0.23502218771E+01 0.25480477758E+01 0.29629218749E+01 0.36293561278E+01
 0.45881105146E+01 0.58717467305E+01 0.74872491321E+01 0.94015711632E+01 0.11534586166E+02
 0.13631860578E+02 0.15277147241E+02 0.13029153235E+02 0.12088963334E+02 0.11688856698E+02
 0.12089019122E+02 0.13029225859E+02 0.13875946691E+02 0.13983154512E+02 0.13062571453E+02
 0.11343135576E+02 0.94015634285E+01 0.76038877410E+01 0.60674303861E+01 0.48464710259E+01
 0.39447159169E+01 0.33364864596E+01 0.29885269746E+01 0.28756006724E+01 0.29885399145E+01
 0.33365053344E+01 0.39447241294E+01 0.48464532140E+01 0.60673925110E+01 0.76038590822E+01
 0.94015711632E+01 0.11343177877E+02 0.13062616303E+02 0.13983163715E+02 0.13875904344E+02
 0.71374507235E+01 0.53674920442E+01 0.53674974490E+01 0.71374601703E+01 0.98517352604E+01
 0.12290709509E+02 0.13461952787E+02 0.13062591459E+02 0.11534578455E+02 0.96797236221E+01
 0.79323743556E+01 0.64405713224E+01 0.52693734392E+01 0.44246366901E+01 0.38839026602E+01
 0.36212664054E+01 0.36212679652E+01 0.38839095560E+01 0.44246497827E+01 0.52693850585E+01
 0.64405714157E+01 0.79323634375E+01 0.96797151585E+01 0.11534586166E+02 0.13062616303E+02
 0.13461982038E+02 0.12290727449E+02 0.98517357253E+01 0.13500340637E+00 -.13541386646E+01
 0.13480533709E+00 0.39730571343E+01 0.85970391350E+01 0.12290782549E+02 0.13983310151E+02
 0.13631974818E+02 0.12034012605E+02 0.10162736090E+02 0.84230102461E+01 0.69678665127E+01
 0.58537358300E+01 0.50802238693E+01 0.46274976845E+01 0.44785999795E+01 0.46274752394E+01
 0.50801975163E+01 0.58537330916E+01 0.69679061273E+01 0.84230819657E+01 0.10162792947E+02
 0.12033994089E+02 0.13631860578E+02 0.13983163715E+02 0.12290727449E+02 0.85971590432E+01
 0.39733009554E+01 -.55654304750E+01 -.55655732706E+01 -.18965418443E+01 0.39730922681E+01
 0.98517707501E+01 0.13876116885E+02 0.15277351637E+02 0.14494195338E+02 0.12675279908E+02
 0.10750982561E+02 0.90288331245E+01 0.76347088713E+01 0.66020476065E+01 0.59240673541E+01
 0.55882050398E+01 0.55881871552E+01 0.59240211302E+01 0.66019985436E+01 0.76346981410E+01
 0.90288909094E+01 0.10751087510E+02 0.12675346980E+02 0.14494129964E+02 0.15277147241E+02
 0.13875904344E+02 0.98517357253E+01 0.39733009554E+01 -.18962387689E+01 -.55654620746E+01
 -.13538747671E+01 0.53677515599E+01 0.12089078119E+02 0.16716961971E+02 0.18422260865E+02
 0.17713738643E+02 0.15848483903E+02 0.13835114784E+02 0.12012051148E+02 0.10507687677E+02
 0.93575094804E+01 0.85728702735E+01 0.81717300634E+01 0.81717471413E+01 0.85729024607E+01
 0.93575162910E+01 0.10507640309E+02 0.12011957508E+02 0.13835025028E+02 0.15848467532E+02
 0.17713827760E+02 0.18422398453E+02 0.16717022037E+02 0.12088965630E+02 0.53674935896E+01
 -.13541371985E+01 -.55655718044E+01 -.13538747671E+01 0.42818744409E+01 0.11122251467E+02
 0.16759260226E+02 0.19735315364E+02 0.19988692491E+02 0.18519909621E+02 0.16553496965E+02
 0.14645947828E+02 0.12983960453E+02 0.11629129354E+02 0.10607192786E+02 0.99590629542E+01
 0.97352017304E+01 0.99591277281E+01 0.10607282844E+02 0.11629178437E+02 0.12983906038E+02
 0.14645783161E+02 0.16553312170E+02 0.18519853633E+02 0.19988841259E+02 0.19735561247E+02
 0.16759366281E+02 0.11122059675E+02 0.42814731796E+01 -.13541997379E+01 -.35377731692E+01
 0.53677515599E+01 0.11122251467E+02 0.16727363497E+02 0.20386621926E+02 0.21496019774E+02
 0.20631789709E+02 0.18930398713E+02 0.17125004812E+02 0.15455260963E+02 0.14002251252E+02
 0.12798424782E+02 0.11905467842E+02 0.11420474454E+02 0.11420495396E+02 0.11905529210E+02
 0.12798511038E+02 0.14002314962E+02 0.15455235838E+02 0.17124867452E+02 0.18930224866E+02
 0.20631716366E+02 0.21496114335E+02 0.20386792806E+02 0.16727432067E+02 0.11122130341E+02
 0.53675419808E+01 0.17132723435E+01 0.17133746963E+01 0.12089078119E+02 0.16759260226E+02
 0.20386621926E+02 0.22023129087E+02 0.21800176294E+02 0.20572196823E+02 0.19084237291E+02
 0.17605122718E+02 0.16220264524E+02 0.14952232594E+02 0.13867171763E+02 0.13107977868E+02
 0.12831754747E+02 0.13107977083E+02 0.13867188065E+02 0.14952278452E+02 0.16220320042E+02
 0.17605139243E+02 0.19084181926E+02 0.20572095403E+02 0.21800099910E+02 0.22023129573E+02
 0.20386687239E+02 0.16759335961E+02 0.12089123493E+02 0.81270351370E+01 0.65720577709E+01
 0.81270207009E+01 0.16716961971E+02 0.19735315364E+02 0.21496019774E+02 0.21800176294E+02
 0.21160519316E+02 0.20172916902E+02 0.19084238685E+02 0.17964276962E+02 0.16804559121E+02
 0.15643591220E+02 0.14629692183E+02 0.14017680376E+02 0.14017679226E+02 0.14629691528E+02
 0.15643595969E+02 0.16804569241E+02 0.17964284498E+02 0.19084233958E+02 0.20172898637E+02
 0.21160496358E+02 0.21800161565E+02 0.21496022907E+02 0.19735339390E+02 0.16717000989E+02
 0.13453333351E+02 0.11327627496E+02 0.11327611945E+02 0.13453296035E+02 0.18422260865E+02
 0.19988692491E+02 0.20631789709E+02 0.20572196823E+02 0.20172916902E+02 0.19613126045E+02
 0.18930399354E+02 0.18069442423E+02 0.16990979799E+02 0.15786889496E+02 0.14792745870E+02
 0.14403217191E+02 0.14792758106E+02 0.15786918967E+02 0.16991013005E+02 0.18069443561E+02
 0.18930344863E+02 0.19613039534E+02 0.20172858508E+02 0.20572208657E+02 0.20631854248E+02
 0.19988746635E+02 0.18422252952E+02 0.16278260046E+02 0.14393478928E+02 0.13641570525E+02
 0.14393537715E+02 0.16278322681E+02 0.17713738643E+02 0.18519909621E+02 0.18930398713E+02
 0.19084237291E+02 0.19084238685E+02 0.18930399354E+02 0.18519906056E+02 0.17713734713E+02
 0.16485046190E+02 0.15162227904E+02 0.14292513964E+02 0.14292486106E+02 0.15162187209E+02
 0.16485065063E+02 0.17713816160E+02 0.18519965019E+02 0.18930349054E+02 0.19084085729E+02
 0.19084083678E+02 0.18930346455E+02 0.18519965454E+02 0.17713816197E+02 0.16485061445E+02
 0.15162183945E+02 0.14292487215E+02 0.14292516148E+02 0.15162227537E+02 0.16485046455E+02
 0.15848483903E+02 0.16553496965E+02 0.17125004812E+02 0.17605122718E+02 0.17964276962E+02
 0.18069442423E+02 0.17713734713E+02 0.16715162518E+02 0.15277352847E+02 0.13983311986E+02
 0.13461952146E+02 0.13983155679E+02 0.15277188605E+02 0.16715144615E+02 0.17713878366E+02
 0.18069612264E+02 0.17964309814E+02 0.17604969059E+02 0.17124766715E+02 0.16553333550E+02
 0.15848476963E+02 0.14997527887E+02 0.14089945663E+02 0.13353770460E+02 0.13066837876E+02
 0.13353702242E+02 0.14089825488E+02 0.14997421704E+02 0.13835114784E+02 0.14645947828E+02
 0.15455260963E+02 0.16220264524E+02 0.16804559121E+02 0.16990979799E+02 0.16485046190E+02
 0.15277352847E+02 0.13828657936E+02 0.12843883915E+02 0.12843781157E+02 0.13828421505E+02
 0.15277146873E+02 0.16485011120E+02 0.16991133312E+02 0.16804782105E+02 0.16220384753E+02
 0.15455184899E+02 0.14645736481E+02 0.13834929526E+02 0.13019592655E+02 0.12228310306E+02
 0.11564612306E+02 0.11177462592E+02 0.11177399491E+02 0.11564469317E+02 0.12228202370E+02
 0.13019628107E+02 0.12012051148E+02 0.12983960453E+02 0.14002251252E+02 0.14952232594E+02
 0.15643591220E+02 0.15786889496E+02 0.15162227904E+02 0.13983311986E+02 0.12843883915E+02
 0.12374527797E+02 0.12843815179E+02 0.13983188853E+02 0.15162095116E+02 0.15786821652E+02
 0.15643646795E+02 0.14952391046E+02 0.14002407453E+02 0.12984009888E+02 0.12011983292E+02
 0.11125954787E+02 0.10338523824E+02 0.96857331642E+01 0.92405409640E+01 0.90808808557E+01
 0.92405095852E+01 0.96857190459E+01 0.10338575199E+02 0.11126057349E+02 0.10507687677E+02
 0.11629129354E+02 0.12798424782E+02 0.13867171763E+02 0.14629692183E+02 0.14792745870E+02
 0.14292513964E+02 0.13461952146E+02 0.12843781157E+02 0.12843815179E+02 0.13462018629E+02
 0.14292538224E+02 0.14792686529E+02 0.14629588623E+02 0.13867114644E+02 0.12798471310E+02
 0.11629252453E+02 0.10507808731E+02 0.95126588168E+01 0.86694997036E+01 0.79901167043E+01
 0.75004326163E+01 0.72401980146E+01 0.72402288650E+01 0.75005058759E+01 0.79901872260E+01
 0.86695204606E+01 0.95126022797E+01 0.93575094804E+01 0.10607192786E+02 0.11905467842E+02
 0.13107977868E+02 0.14017680376E+02 0.14403217191E+02 0.14292486106E+02 0.13983155679E+02
 0.13828421505E+02 0.13983188853E+02 0.14292538224E+02 0.14403257616E+02 0.14017677154E+02
 0.13107926399E+02 0.11905400243E+02 0.10607155397E+02 0.93575303926E+01 0.82508002278E+01
 0.73269533887E+01 0.65941690906E+01 0.60553834751E+01 0.57216179449E+01 0.56080070933E+01
 0.57216614023E+01 0.60554170943E+01 0.65941465751E+01 0.73268828379E+01 0.82507315359E+01
 0.85728702735E+01 0.99590629542E+01 0.11420474454E+02 0.12831754747E+02 0.14017679226E+02
 0.14792758106E+02 0.15162187209E+02 0.15277188605E+02 0.15277146873E+02 0.15162095116E+02
 0.14792686529E+02 0.14017677154E+02 0.12831810520E+02 0.11420527419E+02 0.99590552407E+01
 0.85727984127E+01 0.73506458847E+01 0.63352548987E+01 0.55340578405E+01 0.49390859242E+01
 0.45428528936E+01 0.43439320013E+01 0.43439228229E+01 0.45428209256E+01 0.49390373865E+01
 0.55340297631E+01 0.63352862773E+01 0.73507274044E+01 0.81717300634E+01 0.97352017304E+01
 0.11420495396E+02 0.13107977083E+02 0.14629691528E+02 0.15786918967E+02 0.16485065063E+02
 0.16715144615E+02 0.16485011120E+02 0.15786821652E+02 0.14629588623E+02 0.13107926399E+02
 0.11420527419E+02 0.97352795034E+01 0.81717740183E+01 0.68094940844E+01 0.56850559147E+01
 0.48009892081E+01 0.41410701447E+01 0.36849022796E+01 0.34167979617E+01 0.33282508826E+01
 0.34167655098E+01 0.36848685453E+01 0.41410789408E+01 0.48010571925E+01 0.56851431341E+01
 0.68095306637E+01 0.81717471413E+01 0.99591277281E+01 0.11905529210E+02 0.13867188065E+02
 0.15643595969E+02 0.16991013005E+02 0.17713816160E+02 0.17713878366E+02 0.16991133312E+02
 0.15643646795E+02 0.13867114644E+02 0.11905400243E+02 0.99590552407E+01 0.81717740183E+01
 0.66285242148E+01 0.53633146340E+01 0.43729000554E+01 0.36326786190E+01 0.31111181534E+01
 0.27799254708E+01 0.26192663753E+01 0.26192689896E+01 0.27799404011E+01 0.31111542285E+01
 0.36327226830E+01 0.43729137903E+01 0.53632703770E+01 0.66284499854E+01 0.85729024607E+01
 0.10607282844E+02 0.12798511038E+02 0.14952278452E+02 0.16804569241E+02 0.18069443561E+02
 0.18519965019E+02 0.18069612264E+02 0.16804782105E+02 0.14952391046E+02 0.12798471310E+02
 0.10607155397E+02 0.85727984127E+01 0.68094940844E+01 0.53633146340E+01 0.42322994046E+01
 0.33864173693E+01 0.27844434803E+01 0.23862886566E+01 0.21604342912E+01 0.20873440846E+01
 0.21604604728E+01 0.23863226870E+01 0.27844542194E+01 0.33863802507E+01 0.42322238649E+01
 0.53632527344E+01 0.68095080884E+01 0.93575162910E+01 0.11629178437E+02 0.14002314962E+02
 0.16220320042E+02 0.17964284498E+02 0.18930344863E+02 0.18930349054E+02 0.17964309814E+02
 0.16220384753E+02 0.14002407453E+02 0.11629252453E+02 0.93575303926E+01 0.73506458847E+01
 0.56850559147E+01 0.43729000554E+01 0.33864173693E+01 0.26786758206E+01 0.21993466365E+01
 0.19052198285E+01 0.17658780401E+01 0.17658778910E+01 0.19052133188E+01 0.21993231194E+01
 0.26786375671E+01 0.33863889576E+01 0.43729103130E+01 0.56851028513E+01 0.73506862589E+01
 0.10507640309E+02 0.12983906038E+02 0.15455235838E+02 0.17605139243E+02 0.19084233958E+02
 0.19613039534E+02 0.19084085729E+02 0.17604969059E+02 0.15455184899E+02 0.12984009888E+02
 0.10507808731E+02 0.82508002278E+01 0.63352548987E+01 0.48009892081E+01 0.36326786190E+01
 0.27844434803E+01 0.21993466365E+01 0.18235943674E+01 0.16153426371E+01 0.15487907396E+01
 0.16153124289E+01 0.18235515139E+01 0.21993201101E+01 0.27844609960E+01 0.36327439026E+01
 0.48010599927E+01 0.63352567921E+01 0.82506912021E+01 0.12011957508E+02 0.14645783161E+02
 0.17124867452E+02 0.19084181926E+02 0.20172898637E+02 0.20172858508E+02 0.19084083678E+02
 0.17124766715E+02 0.14645736481E+02 0.12011983292E+02 0.95126588168E+01 0.73269533887E+01
 0.55340578405E+01 0.41410701447E+01 0.31111181534E+01 0.23862886566E+01 0.19052198285E+01
 0.16153426371E+01 0.14797362749E+01 0.14797247711E+01 0.16153217868E+01 0.19052157526E+01
 0.23863133185E+01 0.31111587270E+01 0.41410979249E+01 0.55340461013E+01 0.73268983625E+01
 0.95125922804E+01 0.13835025028E+02 0.16553312170E+02 0.18930224866E+02 0.20572095403E+02
 0.21160496358E+02 0.20572208657E+02 0.18930346455E+02 0.16553333550E+02 0.13834929526E+02
 0.11125954787E+02 0.86694997036E+01 0.65941690906E+01 0.49390859242E+01 0.36849022796E+01
 0.27799254708E+01 0.21604342912E+01 0.17658780401E+01 0.15487907396E+01 0.14797247711E+01
 0.15488010787E+01 0.17659038192E+01 0.21604633402E+01 0.27799267576E+01 0.36848607136E+01
 0.49390331389E+01 0.65941667757E+01 0.86695837759E+01 0.11126090758E+02 0.15848467532E+02
 0.18519853633E+02 0.20631716366E+02 0.21800099910E+02 0.21800161565E+02 0.20631854248E+02
 0.18519965454E+02 0.15848476963E+02 0.13019592655E+02 0.10338523824E+02 0.79901167043E+01
 0.60553834751E+01 0.45428528936E+01 0.34167979617E+01 0.26192663753E+01 0.20873440846E+01
 0.17658778910E+01 0.16153124289E+01 0.16153217868E+01 0.17659038192E+01 0.20873721512E+01
 0.26192680813E+01 0.34167585105E+01 0.45428009136E+01 0.60553768527E+01 0.79901890468E+01
 0.10338645108E+02 0.13019683456E+02 0.17713827760E+02 0.19988841259E+02 0.21496114335E+02
 0.22023129573E+02 0.21496022907E+02 0.19988746635E+02 0.17713816197E+02 0.14997527887E+02
 0.12228310306E+02 0.96857331642E+01 0.75004326163E+01 0.57216179449E+01 0.43439320013E+01
 0.33282508826E+01 0.26192689896E+01 0.21604604728E+01 0.19052133188E+01 0.18235515139E+01
 0.19052157526E+01 0.21604633402E+01 0.26192680813E+01 0.33282481068E+01 0.43439401872E+01
 0.57216418882E+01 0.75004459108E+01 0.96856956551E+01 0.12228222616E+02 0.14997454204E+02
 0.18422398453E+02 0.19735561247E+02 0.20386792806E+02 0.20386687239E+02 0.19735339390E+02
 0.18422252952E+02 0.16485061445E+02 0.14089945663E+02 0.11564612306E+02 0.92405409640E+01
 0.72401980146E+01 0.56080070933E+01 0.43439228229E+01 0.34167655098E+01 0.27799404011E+01
 0.23863226870E+01 0.21993231194E+01 0.21993201101E+01 0.23863133185E+01 0.27799267576E+01
 0.34167585105E+01 0.43439401872E+01 0.56080491401E+01 0.72402213091E+01 0.92404781523E+01
 0.11564448235E+02 0.14089771451E+02 0.16485019376E+02 0.16717022037E+02 0.16759366281E+02
 0.16727432067E+02 0.16759335961E+02 0.16717000989E+02 0.16278260046E+02 0.15162183945E+02
 0.13353770460E+02 0.11177462592E+02 0.90808808557E+01 0.72402288650E+01 0.57216614023E+01
 0.45428209256E+01 0.36848685453E+01 0.31111542285E+01 0.27844542194E+01 0.26786375671E+01
 0.27844609960E+01 0.31111587270E+01 0.36848607136E+01 0.45428009136E+01 0.57216418882E+01
 0.72402213091E+01 0.90808777500E+01 0.11177441225E+02 0.13353720823E+02 0.15162129549E+02
 0.16278238663E+02 0.12088965630E+02 0.11122059675E+02 0.11122130341E+02 0.12089123493E+02
 0.13453333351E+02 0.14393478928E+02 0.14292487215E+02 0.13066837876E+02 0.11177399491E+02
 0.92405095852E+01 0.75005058759E+01 0.60554170943E+01 0.49390373865E+01 0.41410789408E+01
 0.36327226830E+01 0.33863802507E+01 0.33863889576E+01 0.36327439026E+01 0.41410979249E+01
 0.49390331389E+01 0.60553768527E+01 0.75004459108E+01 0.92404781523E+01 0.11177441225E+02
 0.13066941552E+02 0.14292575101E+02 0.14393465251E+02 0.13453205543E+02 0.53674935896E+01
 0.42814731796E+01 0.53675419808E+01 0.81270351370E+01 0.11327627496E+02 0.13641570525E+02
 0.14292516148E+02 0.13353702242E+02 0.11564469317E+02 0.96857190459E+01 0.79901872260E+01
 0.65941465751E+01 0.55340297631E+01 0.48010571925E+01 0.43729137903E+01 0.42322238649E+01
 0.43729103130E+01 0.48010599927E+01 0.55340461013E+01 0.65941667757E+01 0.79901890468E+01
 0.96856956551E+01 0.11564448235E+02 0.13353720823E+02 0.14292575101E+02 0.13641624009E+02
 0.11327628926E+02 0.81269867253E+01 -.13541371985E+01 -.13541997379E+01 0.17132723435E+01
 0.65720577709E+01 0.11327611945E+02 0.14393537715E+02 0.15162227537E+02 0.14089825488E+02
 0.12228202370E+02 0.10338575199E+02 0.86695204606E+01 0.73268828379E+01 0.63352862773E+01
 0.56851431341E+01 0.53632703770E+01 0.53632527344E+01 0.56851028513E+01 0.63352567921E+01
 0.73268983625E+01 0.86695837759E+01 0.10338645108E+02 0.12228222616E+02 0.14089771451E+02
 0.15162129549E+02 0.14393465251E+02 0.11327628926E+02 0.65721709328E+01 0.17134112678E+01
 -.55655718044E+01 -.35377731692E+01 0.17133746963E+01 0.81270207009E+01 0.13453296035E+02
 0.16278322681E+02 0.16485046455E+02 0.14997421704E+02 0.13019628107E+02 0.11126057349E+02
 0.95126022797E+01 0.82507315359E+01 0.73507274044E+01 0.68095306637E+01 0.66284499854E+01
 0.68095080884E+01 0.73506862589E+01 0.82506912021E+01 0.95125922804E+01 0.11126090758E+02
 0.13019683456E+02 0.14997454204E+02 0.16485019376E+02 0.16278238663E+02 0.13453205543E+02
 0.81269867253E+01 0.17134112678E+01 -.35377216768E+01 0.13500635798E+00 0.53677493802E+01
 0.11688984778E+02 0.16842103886E+02 0.19476079800E+02 0.19562123587E+02 0.18069444181E+02
 0.16143741744E+02 0.14283938906E+02 0.12666145621E+02 0.11348273576E+02 0.10354800614E+02
 0.97251028886E+01 0.95076915013E+01 0.97251489624E+01 0.10354857778E+02 0.11348293372E+02
 0.12666094775E+02 0.14283826173E+02 0.16143630739E+02 0.18069423703E+02 0.19562230072E+02
 0.19476237709E+02 0.16842165898E+02 0.11688859605E+02 0.53674979608E+01 0.13480541453E+00
 -.18965418093E+01 0.53677493802E+01 0.11122249071E+02 0.16727362392E+02 0.20386622155E+02
 0.21496020129E+02 0.20631790233E+02 0.18930400527E+02 0.17125007568E+02 0.15455262967E+02
 0.14002252039E+02 0.12798425203E+02 0.11905467773E+02 0.11420472938E+02 0.11420492954E+02
 0.11905527521E+02 0.12798510338E+02 0.14002314149E+02 0.15455234988E+02 0.17124867779E+02
 0.18930226308E+02 0.20631717674E+02 0.21496115447E+02 0.20386794651E+02 0.16727434137E+02
 0.11122130960E+02 0.53675409494E+01 0.17132709541E+01 0.17133732623E+01 0.11688984778E+02
 0.16727362392E+02 0.20682720874E+02 0.22531299651E+02 0.22388631727E+02 0.21144153826E+02