  26  26   0   0
  0.2069891E+02  0.7714400E-09  0.7714400E-09  0.9043084E-09  0.5000000E-15
  1.000000000000000E-004
  CAR 
 unknown system                          
     10.27525635    -13.84503469  301      2.91856759      1.00000000
    -13.845  0.0000E+00  0.0000E+00
    -13.765  0.0000E+00  0.0000E+00
    -13.684  0.0000E+00  0.0000E+00
    -13.604  0.0000E+00  0.0000E+00
    -13.523  0.0000E+00  0.0000E+00
    -13.443  0.0000E+00  0.0000E+00
    -13.363  0.0000E+00  0.0000E+00
    -13.282  0.0000E+00  0.0000E+00
    -13.202  0.0000E+00  0.0000E+00
    -13.121  0.0000E+00  0.0000E+00
    -13.041  0.0000E+00  0.0000E+00
    -12.961  0.0000E+00  0.0000E+00
    -12.880  0.0000E+00  0.0000E+00
    -12.800  0.3200E-12  0.2573E-13
    -12.719  0.1382E+01  0.1111E+00
    -12.639  0.5552E+01  0.5575E+00
    -12.559  0.1911E+02  0.2094E+01
    -12.478  0.3677E+02  0.5079E+01
    -12.398  0.3387E+02  0.7996E+01
    -12.317  0.0000E+00  0.8000E+01
    -12.237  0.0000E+00  0.8000E+01
    -12.157  0.0000E+00  0.8000E+01
    -12.076  0.0000E+00  0.8000E+01
    -11.996  0.0000E+00  0.8000E+01
    -11.915  0.0000E+00  0.8000E+01
    -11.835  0.0000E+00  0.8000E+01
    -11.755  0.0000E+00  0.8000E+01
    -11.674  0.0000E+00  0.8000E+01
    -11.594  0.0000E+00  0.8000E+01
    -11.513  0.0000E+00  0.8000E+01
    -11.433  0.0000E+00  0.8000E+01
    -11.353  0.0000E+00  0.8000E+01
    -11.272  0.0000E+00  0.8000E+01
    -11.192  0.0000E+00  0.8000E+01
    -11.111  0.0000E+00  0.8000E+01
    -11.031  0.0000E+00  0.8000E+01
    -10.951  0.0000E+00  0.8000E+01
    -10.870  0.0000E+00  0.8000E+01
    -10.790  0.0000E+00  0.8000E+01
    -10.709  0.0000E+00  0.8000E+01
    -10.629  0.0000E+00  0.8000E+01
    -10.549  0.0000E+00  0.8000E+01
    -10.468  0.0000E+00  0.8000E+01
    -10.388  0.0000E+00  0.8000E+01
    -10.307  0.0000E+00  0.8000E+01
    -10.227  0.2301E-15  0.8000E+01
    -10.147  0.6863E+01  0.8552E+01
    -10.066  0.1101E+02  0.9441E+01
     -9.986  0.2785E+02  0.1168E+02
     -9.905  0.4314E+02  0.1515E+02
     -9.825  0.4342E+02  0.1873E+02
     -9.745  0.2721E+02  0.2097E+02
     -9.664  0.3227E+02  0.2357E+02
     -9.584  0.1437E+02  0.2483E+02
     -9.503  0.2722E+02  0.2702E+02
     -9.423  0.3912E+02  0.3016E+02
     -9.343  0.1044E+02  0.3100E+02
     -9.262  0.1093E+02  0.3188E+02
     -9.182  0.1382E+01  0.3200E+02
     -9.101  0.0000E+00  0.3200E+02
     -9.021  0.0000E+00  0.3200E+02
     -8.941  0.0000E+00  0.3200E+02
     -8.860  0.0000E+00  0.3200E+02
     -8.780  0.0000E+00  0.3200E+02
     -8.699  0.0000E+00  0.3200E+02
     -8.619  0.0000E+00  0.3200E+02
     -8.539  0.0000E+00  0.3200E+02
     -8.458  0.0000E+00  0.3200E+02
     -8.378  0.0000E+00  0.3200E+02
     -8.297  0.0000E+00  0.3200E+02
     -8.217  0.0000E+00  0.3200E+02
     -8.137  0.0000E+00  0.3200E+02
     -8.056  0.0000E+00  0.3200E+02
     -7.976  0.0000E+00  0.3200E+02
     -7.895  0.0000E+00  0.3200E+02
     -7.815  0.0000E+00  0.3200E+02
     -7.735  0.0000E+00  0.3200E+02
     -7.654  0.0000E+00  0.3200E+02
     -7.574  0.0000E+00  0.3200E+02
     -7.493  0.0000E+00  0.3200E+02
     -7.413  0.0000E+00  0.3200E+02
     -7.333  0.0000E+00  0.3200E+02
     -7.252  0.0000E+00  0.3200E+02
     -7.172  0.0000E+00  0.3200E+02
     -7.091  0.0000E+00  0.3200E+02
     -7.011  0.0000E+00  0.3200E+02
     -6.931  0.0000E+00  0.3200E+02
     -6.850  0.0000E+00  0.3200E+02
     -6.770  0.0000E+00  0.3200E+02
     -6.689  0.0000E+00  0.3200E+02
     -6.609  0.0000E+00  0.3200E+02
     -6.529  0.0000E+00  0.3200E+02
     -6.448  0.0000E+00  0.3200E+02
     -6.368  0.0000E+00  0.3200E+02
     -6.287  0.4219E-14  0.3200E+02
     -6.207  0.1382E+01  0.3211E+02
     -6.127  0.0000E+00  0.3211E+02
     -6.046  0.1519E+00  0.3212E+02
     -5.966  0.5376E+01  0.3256E+02
     -5.885  0.5390E+01  0.3299E+02
     -5.805  0.3848E+01  0.3330E+02
     -5.725  0.1702E+02  0.3467E+02
     -5.644  0.1779E+02  0.3610E+02
     -5.564  0.2211E+02  0.3797E+02
     -5.483  0.1293E+02  0.3933E+02
     -5.403  0.6854E+01  0.4000E+02
     -5.323  0.0000E+00  0.4000E+02
     -5.242  0.0000E+00  0.4000E+02
     -5.162  0.0000E+00  0.4000E+02
     -5.081  0.0000E+00  0.4000E+02
     -5.001  0.0000E+00  0.4000E+02
     -4.921  0.0000E+00  0.4000E+02
     -4.840  0.0000E+00  0.4000E+02
     -4.760  0.0000E+00  0.4000E+02
     -4.679  0.0000E+00  0.4000E+02
     -4.599  0.0000E+00  0.4000E+02
     -4.519  0.0000E+00  0.4000E+02
     -4.438  0.0000E+00  0.4000E+02
     -4.358  0.0000E+00  0.4000E+02
     -4.277  0.0000E+00  0.4000E+02
     -4.197  0.0000E+00  0.4000E+02
     -4.117  0.2878E-11  0.4000E+02
     -4.036  0.1382E+01  0.4011E+02
     -3.956  0.5528E+01  0.4056E+02
     -3.875  0.3055E+02  0.4301E+02
     -3.795  0.7352E+02  0.4895E+02
     -3.715  0.7322E+02  0.5519E+02
     -3.634  0.6471E+02  0.6068E+02
     -3.554  0.5813E+02  0.6562E+02
     -3.473  0.8241E+02  0.7225E+02
     -3.393  0.6723E+02  0.7793E+02
     -3.313  0.1553E+03  0.9084E+02
     -3.232  0.7642E+02  0.9722E+02
     -3.152  0.2693E+02  0.9940E+02
     -3.071  0.6699E+01  0.9994E+02
     -2.991  0.6880E+01  0.1007E+03
     -2.911  0.1429E+00  0.1007E+03
     -2.830  0.1900E+02  0.1022E+03
     -2.750  0.1908E+02  0.1038E+03
     -2.669  0.4947E+01  0.1042E+03
     -2.589  0.1917E-04  0.1042E+03
     -2.508  0.1980E+02  0.1058E+03
     -2.428  0.3619E+01  0.1063E+03
     -2.348  0.1011E+02  0.1071E+03
     -2.267  0.2211E+02  0.1089E+03
     -2.187  0.1688E+02  0.1102E+03
     -2.106  0.9384E+01  0.1110E+03
     -2.026  0.2085E+02  0.1127E+03
     -1.946  0.3259E+02  0.1153E+03
     -1.865  0.3599E+02  0.1184E+03
     -1.785  0.2611E+02  0.1205E+03
     -1.704  0.1037E+01  0.1208E+03
     -1.624  0.1124E+02  0.1217E+03
     -1.544  0.2365E+02  0.1236E+03
     -1.463  0.1083E+02  0.1244E+03
     -1.383  0.9479E+01  0.1252E+03
     -1.302  0.1509E+01  0.1253E+03
     -1.222  0.1500E+02  0.1265E+03
     -1.142  0.1099E+02  0.1276E+03
     -1.061  0.1445E-09  0.1277E+03
     -0.981  0.5528E+01  0.1281E+03
     -0.900  0.0000E+00  0.1281E+03
     -0.820  0.9352E+01  0.1289E+03
     -0.740  0.1086E-05  0.1290E+03
     -0.659  0.5541E+01  0.1294E+03
     -0.579  0.1408E+02  0.1306E+03
     -0.498  0.2130E+02  0.1323E+03
     -0.418  0.8448E+01  0.1330E+03
     -0.338  0.1973E+02  0.1346E+03
     -0.257  0.6978E+01  0.1352E+03
     -0.177  0.1892E+02  0.1367E+03
     -0.096  0.6904E+01  0.1373E+03
     -0.016  0.5528E+01  0.1378E+03
      0.064  0.9078E-06  0.1378E+03
      0.145  0.1762E+02  0.1392E+03
      0.225  0.1048E+02  0.1401E+03
      0.306  0.1519E+02  0.1413E+03
      0.386  0.1607E+02  0.1426E+03
      0.466  0.2749E+02  0.1448E+03
      0.547  0.3515E+01  0.1451E+03
      0.627  0.2177E+02  0.1469E+03
      0.708  0.5882E+01  0.1474E+03
      0.788  0.2650E+02  0.1496E+03
      0.868  0.1135E+02  0.1507E+03
      0.949  0.4326E+02  0.1542E+03
      1.029  0.1080E+02  0.1551E+03
      1.110  0.1863E+02  0.1566E+03
      1.190  0.1528E+02  0.1579E+03
      1.270  0.2405E+02  0.1600E+03
      1.351  0.3242E+02  0.1626E+03
      1.431  0.1606E+02  0.1640E+03
      1.512  0.3510E+02  0.1668E+03
      1.592  0.5526E+01  0.1673E+03
      1.672  0.1142E+02  0.1683E+03
      1.753  0.9518E+01  0.1691E+03
      1.833  0.3915E+02  0.1723E+03
      1.914  0.1234E+02  0.1736E+03
      1.994  0.1805E+02  0.1750E+03
      2.074  0.2885E+02  0.1773E+03
      2.155  0.1174E+02  0.1783E+03
      2.235  0.1663E+02  0.1797E+03
      2.316  0.1516E+02  0.1809E+03
      2.396  0.2195E+02  0.1827E+03
      2.476  0.1918E+02  0.1842E+03
      2.557  0.1065E+02  0.1851E+03
      2.637  0.2209E+02  0.1869E+03
      2.718  0.1106E+02  0.1878E+03
      2.798  0.8217E+00  0.1878E+03
      2.878  0.1052E+01  0.1880E+03
      2.959  0.0000E+00  0.1880E+03
      3.039  0.0000E+00  0.1880E+03
      3.120  0.0000E+00  0.1880E+03
      3.200  0.0000E+00  0.1880E+03
      3.280  0.0000E+00  0.1880E+03
      3.361  0.0000E+00  0.1880E+03
      3.441  0.0000E+00  0.1880E+03
      3.522  0.0000E+00  0.1880E+03
      3.602  0.0000E+00  0.1880E+03
      3.682  0.0000E+00  0.1880E+03
      3.763  0.0000E+00  0.1880E+03
      3.843  0.0000E+00  0.1880E+03
      3.924  0.0000E+00  0.1880E+03
      4.004  0.0000E+00  0.1880E+03
      4.084  0.0000E+00  0.1880E+03
      4.165  0.0000E+00  0.1880E+03
      4.245  0.0000E+00  0.1880E+03
      4.326  0.0000E+00  0.1880E+03
      4.406  0.0000E+00  0.1880E+03
      4.486  0.0000E+00  0.1880E+03
      4.567  0.0000E+00  0.1880E+03
      4.647  0.0000E+00  0.1880E+03
      4.728  0.0000E+00  0.1880E+03
      4.808  0.0000E+00  0.1880E+03
      4.888  0.0000E+00  0.1880E+03
      4.969  0.0000E+00  0.1880E+03
      5.049  0.7365E-14  0.1880E+03
      5.130  0.1382E+01  0.1881E+03
      5.210  0.0000E+00  0.1881E+03
      5.290  0.5474E+01  0.1886E+03
      5.371  0.0000E+00  0.1886E+03
      5.451  0.8932E+00  0.1886E+03
      5.532  0.8817E+01  0.1893E+03
      5.612  0.2098E+02  0.1910E+03
      5.692  0.1514E+02  0.1922E+03
      5.773  0.5841E+01  0.1930E+03
      5.853  0.2177E+02  0.1948E+03
      5.934  0.7539E+01  0.1954E+03
      6.014  0.8991E+01  0.1961E+03
      6.094  0.8450E-06  0.1961E+03
      6.175  0.1547E+02  0.1974E+03
      6.255  0.2659E+02  0.1996E+03
      6.336  0.1069E+02  0.2005E+03
      6.416  0.1145E+02  0.2016E+03
      6.496  0.2900E+02  0.2039E+03
      6.577  0.1313E+02  0.2053E+03
      6.657  0.9963E+01  0.2061E+03
      6.738  0.2017E+02  0.2079E+03
      6.818  0.2808E+02  0.2101E+03
      6.898  0.2185E+02  0.2120E+03
      6.979  0.3201E+02  0.2146E+03
      7.059  0.2550E+02  0.2169E+03
      7.140  0.1381E+02  0.2180E+03
      7.220  0.6698E+01  0.2185E+03
      7.300  0.1382E+01  0.2188E+03
      7.381  0.6066E+01  0.2193E+03
      7.461  0.1663E+02  0.2206E+03
      7.542  0.2667E+02  0.2228E+03
      7.622  0.1382E+01  0.2229E+03
      7.702  0.1270E+02  0.2239E+03
      7.783  0.1168E+02  0.2249E+03
      7.863  0.1996E+02  0.2265E+03
      7.944  0.1950E+02  0.2281E+03
      8.024  0.6910E+01  0.2287E+03
      8.104  0.9326E+01  0.2294E+03
      8.185  0.1088E+02  0.2303E+03
      8.265  0.0000E+00  0.2303E+03
      8.346  0.4889E+01  0.2307E+03
      8.426  0.1106E+02  0.2317E+03
      8.506  0.1388E+01  0.2318E+03
      8.587  0.6904E+01  0.2323E+03
      8.667  0.2348E+02  0.2342E+03
      8.748  0.1434E+02  0.2354E+03
      8.828  0.1765E+02  0.2368E+03
      8.908  0.9411E+01  0.2376E+03
      8.989  0.3991E-01  0.2376E+03
      9.069  0.2224E+02  0.2393E+03
      9.150  0.9824E-04  0.2396E+03
      9.230  0.5528E+01  0.2400E+03
      9.310  0.0000E+00  0.2400E+03
      9.391  0.0000E+00  0.2400E+03
      9.471  0.0000E+00  0.2400E+03
      9.552  0.0000E+00  0.2400E+03
      9.632  0.0000E+00  0.2400E+03
      9.712  0.0000E+00  0.2400E+03
      9.793  0.0000E+00  0.2400E+03
      9.873  0.0000E+00  0.2400E+03
      9.954  0.0000E+00  0.2400E+03
     10.034  0.0000E+00  0.2400E+03
     10.114  0.0000E+00  0.2400E+03
     10.195  0.0000E+00  0.2400E+03
     10.275  0.0000E+00  0.2400E+03
