 vasp.5.4.4.18Apr17-6-g9f103f2a35 (build Jun 11 2017 22:27:55) complex

 executed on             LinuxIFC date 2017.06.13  18:36:40
 running on   20 total cores
 distrk:  each k-point on   20 cores,    1 groups
 distr:  one band on NCORES_PER_BAND=   1 cores,   20 groups


--------------------------------------------------------------------------------------------------------


 INCAR:
 POTCAR:    PAW_PBE P 06Sep2000
 POTCAR:    PAW_PBE S 06Sep2000
 POTCAR:    PAW_PBE Zn 06Sep2000

 -----------------------------------------------------------------------------
|                                                                             |
|           W    W    AA    RRRRR   N    N  II  N    N   GGGG   !!!           |
|           W    W   A  A   R    R  NN   N  II  NN   N  G    G  !!!           |
|           W    W  A    A  R    R  N N  N  II  N N  N  G       !!!           |
|           W WW W  AAAAAA  RRRRR   N  N N  II  N  N N  G  GGG   !            |
|           WW  WW  A    A  R   R   N   NN  II  N   NN  G    G                |
|           W    W  A    A  R    R  N    N  II  N    N   GGGG   !!!           |
|                                                                             |
|      For optimal performance we recommend to set                            |
|        NCORE= 4 - approx SQRT( number of cores)                             |
|      NCORE specifies how many cores store one orbital (NPAR=cpu/NCORE).     |
|      This setting can  greatly improve the performance of VASP for DFT.     |
|      The default,   NCORE=1            might be grossly inefficient         |
|      on modern multi-core architectures or massively parallel machines.     |
|      Do your own testing !!!!                                               |
|      Unfortunately you need to use the default for GW and RPA calculations. |
|      (for HF NCORE is supported but not extensively tested yet)             |
|                                                                             |
 -----------------------------------------------------------------------------

 POTCAR:    PAW_PBE P 06Sep2000
   VRHFIN =P : s2p3
   LEXCH  = PE
   EATOM  =   176.0430 eV,   12.9388 Ry

   TITEL  = PAW_PBE P 06Sep2000
   LULTRA =        F    use ultrasoft PP ?
   IUNSCR =        1    unscreen: 0-lin 1-nonlin 2-no
   RPACOR =    1.500    partial core radius
   POMASS =   30.974; ZVAL   =    5.000    mass and valenz
   RCORE  =    1.900    outmost cutoff radius
   RWIGS  =    2.330; RWIGS  =    1.233    wigner-seitz radius (au A)
   ENMAX  =  255.040; ENMIN  =  191.280 eV
   ICORE  =        2    local potential
   LCOR   =        T    correct aug charges
   LPAW   =        T    paw PP
   EAUG   =  342.924
   DEXC   =    0.000
   RMAX   =    1.935    core radius for proj-oper
   RAUG   =    1.300    factor for augmentation sphere
   RDEP   =    1.931    radius for radial grids
   RDEPT  =    1.794    core radius for aug-charge

   Atomic configuration
    6 entries
     n  l   j            E        occ.
     1  0  0.50     -2084.0982   2.0000
     2  0  0.50      -173.9859   2.0000
     2  1  1.50      -124.4865   6.0000
     3  0  0.50       -13.9692   2.0000
     3  1  0.50        -5.5067   3.0000
     3  2  1.50        -5.4423   0.0000
   Description
     l       E           TYP  RCUT    TYP  RCUT
     0    -13.9691527     23  1.900
     0    -11.7794650     23  1.900
     1     -5.5066937     23  1.900
     1     -0.2556953     23  1.900
     2     -5.4423304     23  1.900
  local pseudopotential read in
  partial core-charges read in
  partial kinetic energy density read in
  atomic valenz-charges read in
  non local Contribution for L=           0  read in
    real space projection operators read in
  non local Contribution for L=           0  read in
    real space projection operators read in
  non local Contribution for L=           1  read in
    real space projection operators read in
  non local Contribution for L=           1  read in
    real space projection operators read in
    PAW grid and wavefunctions read in

   number of l-projection  operators is LMAX  =           4
   number of lm-projection operators is LMMAX =           8

 POTCAR:    PAW_PBE S 06Sep2000
   VRHFIN =S : s2p4
   LEXCH  = PE
   EATOM  =   276.8230 eV,   20.3459 Ry

   TITEL  = PAW_PBE S 06Sep2000
   LULTRA =        F    use ultrasoft PP ?
   IUNSCR =        1    unscreen: 0-lin 1-nonlin 2-no
   RPACOR =    1.500    partial core radius
   POMASS =   32.066; ZVAL   =    6.000    mass and valenz
   RCORE  =    1.900    outmost cutoff radius
   RWIGS  =    2.200; RWIGS  =    1.164    wigner-seitz radius (au A)
   ENMAX  =  258.689; ENMIN  =  194.016 eV
   ICORE  =        2    local potential
   LCOR   =        T    correct aug charges
   LPAW   =        T    paw PP
   EAUG   =  335.092
   DEXC   =    0.000
   RMAX   =    1.942    core radius for proj-oper
   RAUG   =    1.300    factor for augmentation sphere
   RDEP   =    1.954    radius for radial grids
   RDEPT  =    1.744    core radius for aug-charge

   Atomic configuration
    6 entries
     n  l   j            E        occ.
     1  0  0.50     -2405.8406   2.0000
     2  0  0.50      -211.7007   2.0000
     2  1  1.50      -156.4958   6.0000
     3  0  0.50       -17.2562   2.0000
     3  1  0.50        -7.0085   4.0000
     3  2  1.50        -6.8029   0.0000
   Description
     l       E           TYP  RCUT    TYP  RCUT
     0    -17.2561641     23  1.900
     0    -15.8743224     23  1.900
     1     -7.0085400     23  1.900
     1     -2.7779785     23  1.900
     2     -6.8029130     23  1.900
  local pseudopotential read in
  partial core-charges read in
  partial kinetic energy density read in
  atomic valenz-charges read in
  non local Contribution for L=           0  read in
    real space projection operators read in
  non local Contribution for L=           0  read in
    real space projection operators read in
  non local Contribution for L=           1  read in
    real space projection operators read in
  non local Contribution for L=           1  read in
    real space projection operators read in
    PAW grid and wavefunctions read in

   number of l-projection  operators is LMAX  =           4
   number of lm-projection operators is LMMAX =           8

 POTCAR:    PAW_PBE Zn 06Sep2000
   VRHFIN =Zn: d10 p2
   LEXCH  = PE
   EATOM  =  1748.8345 eV,  128.5357 Ry

   TITEL  = PAW_PBE Zn 06Sep2000
   LULTRA =        F    use ultrasoft PP ?
   IUNSCR =        1    unscreen: 0-lin 1-nonlin 2-no
   RPACOR =    2.000    partial core radius
   POMASS =   65.390; ZVAL   =   12.000    mass and valenz
   RCORE  =    2.300    outmost cutoff radius
   RWIGS  =    2.400; RWIGS  =    1.270    wigner-seitz radius (au A)
   ENMAX  =  276.723; ENMIN  =  207.542 eV
   RCLOC  =    1.828    cutoff for local pot
   LCOR   =        T    correct aug charges
   LPAW   =        T    paw PP
   EAUG   =  575.892
   DEXC   =    0.000
   RMAX   =    2.347    core radius for proj-oper
   RAUG   =    1.300    factor for augmentation sphere
   RDEP   =    2.324    radius for radial grids
   RDEPT  =    1.788    core radius for aug-charge

   Atomic configuration
    9 entries
     n  l   j            E        occ.
     1  0  0.50     -9524.6913   2.0000
     2  0  0.50     -1158.1882   2.0000
     2  1  1.50     -1003.8506   6.0000
     3  0  0.50      -129.2194   2.0000
     3  1  1.50       -83.3890   6.0000
     3  2  2.50       -10.1410  10.0000
     4  0  0.50        -5.9785   2.0000
     4  1  0.50        -4.0817   0.0000
     4  3  2.50        -1.3606   0.0000
   Description
     l       E           TYP  RCUT    TYP  RCUT
     2    -10.1410010     23  2.300
     2    -11.5015836     23  2.300
     0     -5.9785163     23  2.300
     0      1.1858015     23  2.300
     1     -2.7211652     23  2.300
     1     13.2444212     23  2.300
  local pseudopotential read in
  partial core-charges read in
  partial kinetic energy density read in
  atomic valenz-charges read in
  non local Contribution for L=           2  read in
    real space projection operators read in
  non local Contribution for L=           2  read in
    real space projection operators read in
  non local Contribution for L=           0  read in
    real space projection operators read in
  non local Contribution for L=           0  read in
    real space projection operators read in
  non local Contribution for L=           1  read in
    real space projection operators read in
  non local Contribution for L=           1  read in
    real space projection operators read in
    PAW grid and wavefunctions read in

   number of l-projection  operators is LMAX  =           6
   number of lm-projection operators is LMMAX =          18


 -----------------------------------------------------------------------------
|                                                                             |
|  ADVICE TO THIS USER RUNNING 'VASP/VAMP'   (HEAR YOUR MASTER'S VOICE ...):  |
|                                                                             |
|      You have a (more or less) 'large supercell' and for larger cells       |
|      it might be more efficient to use real space projection opertators     |
|      So try LREAL= Auto  in the INCAR   file.                               |
|      Mind:          For very  accurate calculation you might also keep the  |
|      reciprocal projection scheme          (i.e. LREAL=.FALSE.)             |
|                                                                             |
 -----------------------------------------------------------------------------


 -----------------------------------------------------------------------------
|                                                                             |
|  ADVICE TO THIS USER RUNNING 'VASP/VAMP'   (HEAR YOUR MASTER'S VOICE ...):  |
|                                                                             |
|      You enforced a specific xc-type in the INCAR file,                     |
|      a different type was found on the POTCAR file                          |
|          I HOPE YOU KNOW, WHAT YOU ARE  DOING                               |
|                                                                             |
 -----------------------------------------------------------------------------

  PAW_PBE P 06Sep2000                   :
 energy of atom  1       EATOM= -176.0430
 kinetic energy error for atom=    0.0024 (will be added to EATOM!!)
  PAW_PBE S 06Sep2000                   :
 energy of atom  2       EATOM= -276.8230
 kinetic energy error for atom=    0.0050 (will be added to EATOM!!)
  PAW_PBE Zn 06Sep2000                  :
 energy of atom  3       EATOM=-1748.8345
 kinetic energy error for atom=    0.0210 (will be added to EATOM!!)


 POSCAR:  P S Zn
  positions in direct lattice
  No initial velocities read in
 exchange correlation table for  LEXCH =       14
   RHO(1)=    0.500       N(1)  =     2000
   RHO(2)=  100.500       N(2)  =     4000



--------------------------------------------------------------------------------------------------------


 ion  position               nearest neighbor table
   1  0.757  0.743  0.750-  11 2.02  15 2.02   7 2.10  19 2.10
   2  0.743  0.243  0.250-  12 2.02  18 2.02  10 2.10  20 2.10
   3  0.257  0.757  0.250-  13 2.02  17 2.02   6 2.10   9 2.10
   4  0.243  0.257  0.750-  14 2.02  16 2.02   5 2.10   8 2.10
   5  0.483  0.248  0.641-   4 2.10  25 2.33  24 2.38
   6  0.248  0.517  0.359-   3 2.10  25 2.33  23 2.38
   7  0.748  0.983  0.859-   1 2.10  26 2.33  22 2.38
   8  0.252  0.017  0.859-   4 2.10  26 2.33  22 2.38
   9  0.017  0.748  0.141-   3 2.10  26 2.33  21 2.38
  10  0.983  0.252  0.141-   2 2.10  26 2.33  21 2.38
  11  0.971  0.767  0.623-   1 2.02  23 2.29
  12  0.767  0.029  0.377-   2 2.02  24 2.29
  13  0.233  0.971  0.377-   3 2.02  24 2.29
  14  0.029  0.233  0.623-   4 2.02  23 2.29
  15  0.733  0.529  0.877-   1 2.02  21 2.29
  16  0.267  0.471  0.877-   4 2.02  21 2.29
  17  0.471  0.733  0.123-   3 2.02  22 2.29
  18  0.529  0.267  0.123-   2 2.02  22 2.29
  19  0.517  0.752  0.641-   1 2.10  25 2.33  24 2.38
  20  0.752  0.483  0.359-   2 2.10  25 2.33  23 2.38
  21  0.000  0.500  0.985-  15 2.29  16 2.29   9 2.38  10 2.38
  22  0.500  0.000  0.015-  17 2.29  18 2.29   7 2.38   8 2.38
  23  0.000  0.500  0.515-  11 2.29  14 2.29   6 2.38  20 2.38
  24  0.500  0.000  0.485-  12 2.29  13 2.29   5 2.38  19 2.38
  25  0.500  0.500  0.500-   5 2.33   6 2.33  19 2.33  20 2.33
  26  0.000  0.000  0.000-   7 2.33   8 2.33   9 2.33  10 2.33

  LATTYP: Found a simple tetragonal cell.
 ALAT       =     7.7143995200
 C/A-ratio  =     1.1722342687

  Lattice vectors:

 A1 = (   7.7143995200,   0.0000000000,   0.0000000000)
 A2 = (   0.0000000000,   7.7143995200,   0.0000000000)
 A3 = (   0.0000000000,   0.0000000000,   9.0430834800)


Analysis of symmetry for initial positions (statically):
=====================================================================
 Subroutine PRICEL returns:
 Original cell was already a primitive cell.


 Routine SETGRP: Setting up the symmetry group for a
 simple tetragonal supercell.


 Subroutine GETGRP returns: Found  8 space group operations
 (whereof  4 operations were pure point group operations)
 out of a pool of 16 trial point group operations.


The static configuration has the point symmetry S_4 .
 The point group associated with its full space group is D_2d.


Analysis of symmetry for dynamics (positions and initial velocities):
=====================================================================
 Subroutine PRICEL returns:
 Original cell was already a primitive cell.


 Routine SETGRP: Setting up the symmetry group for a
 simple tetragonal supercell.


 Subroutine GETGRP returns: Found  8 space group operations
 (whereof  4 operations were pure point group operations)
 out of a pool of 16 trial point group operations.


The dynamic configuration has the point symmetry S_4 .
 The point group associated with its full space group is D_2d.


 Subroutine INISYM returns: Found  8 space group operations
 (whereof  4 operations are pure point group operations),
 and found     1 'primitive' translations



 KPOINTS: Automatic mesh

Automatic generation of k-mesh.
Space group operators:
 irot       det(A)        alpha          n_x          n_y          n_z        tau_x        tau_y        tau_z
    1     1.000000     0.000000     1.000000     0.000000     0.000000     0.000000     0.000000     0.000000
    2    -1.000000    90.000000     0.000000     0.000000    -1.000000     0.000000     0.000000     0.000000
    3     1.000000   180.000000     0.000000     0.000000     1.000000     0.000000     0.000000     0.000000
    4    -1.000000    90.000000     0.000000     0.000000     1.000000     0.000000     0.000000     0.000000
    5    -1.000000   180.000000     0.000000     1.000000     0.000000     0.500000     0.500000     0.500000
    6     1.000000   180.000000     0.707107     0.707107     0.000000     0.500000     0.500000     0.500000
    7    -1.000000   180.000000     1.000000     0.000000     0.000000     0.500000     0.500000     0.500000
    8     1.000000   180.000000     0.707107    -0.707107     0.000000     0.500000     0.500000     0.500000

 Subroutine IBZKPT returns following result:
 ===========================================

 Found      6 irreducible k-points:

 Following reciprocal coordinates:
            Coordinates               Weight
  0.000000  0.000000  0.000000      1.000000
  0.333333  0.000000  0.000000      4.000000
  0.333333  0.333333  0.000000      4.000000
  0.000000  0.000000  0.500000      1.000000
  0.333333  0.000000  0.500000      4.000000
  0.333333  0.333333  0.500000      4.000000

 Following cartesian coordinates:
            Coordinates               Weight
  0.000000  0.000000  0.000000      1.000000
  0.043209  0.000000  0.000000      4.000000
  0.043209  0.043209  0.000000      4.000000
  0.000000  0.000000  0.055291      1.000000
  0.043209  0.000000  0.055291      4.000000
  0.043209  0.043209  0.055291      4.000000


 Subroutine IBZKPT_HF returns following result:
 ==============================================

 Found     18 k-points in 1st BZ
 the following     18 k-points will be used (e.g. in the exchange kernel)
 Following reciprocal coordinates:   # in IRBZ
  0.000000  0.000000  0.000000    0.05555556   1 t-inv F
  0.333333  0.000000  0.000000    0.05555556   2 t-inv F
  0.333333  0.333333  0.000000    0.05555556   3 t-inv F
  0.000000  0.000000  0.500000    0.05555556   4 t-inv F
  0.333333  0.000000  0.500000    0.05555556   5 t-inv F
  0.333333  0.333333  0.500000    0.05555556   6 t-inv F
  0.000000 -0.333333  0.000000    0.05555556   2 t-inv F
 -0.333333  0.000000  0.000000    0.05555556   2 t-inv F
  0.000000  0.333333  0.000000    0.05555556   2 t-inv F
  0.333333 -0.333333  0.000000    0.05555556   3 t-inv F
 -0.333333 -0.333333  0.000000    0.05555556   3 t-inv F
 -0.333333  0.333333  0.000000    0.05555556   3 t-inv F
  0.000000 -0.333333 -0.500000    0.05555556   5 t-inv F
 -0.333333  0.000000  0.500000    0.05555556   5 t-inv F
  0.000000  0.333333 -0.500000    0.05555556   5 t-inv F
  0.333333 -0.333333 -0.500000    0.05555556   6 t-inv F
 -0.333333 -0.333333  0.500000    0.05555556   6 t-inv F
 -0.333333  0.333333 -0.500000    0.05555556   6 t-inv F


--------------------------------------------------------------------------------------------------------




 Dimension of arrays:
   k-points           NKPTS =      6   k-points in BZ     NKDIM =      6   number of bands    NBANDS=    120
   number of dos      NEDOS =    301   number of ions     NIONS =     26
   non local maximal  LDIM  =      6   non local SUM 2l+1 LMDIM =     18
   total plane-waves  NPLWV = 129024
   max r-space proj   IRMAX =      1   max aug-charges    IRDMAX=  60618
   dimension x,y,z NGX =    48 NGY =   48 NGZ =   56
   dimension x,y,z NGXF=    96 NGYF=   96 NGZF=  112
   support grid    NGXF=   192 NGYF=  192 NGZF=  224
   ions per type =               4  16   6
   NGX,Y,Z   is equivalent  to a cutoff of  10.34, 10.34, 10.29 a.u.
   NGXF,Y,Z  is equivalent  to a cutoff of  20.69, 20.69, 20.59 a.u.

 SYSTEM =  unknown system
 POSCAR =   P S Zn

 Startparameter for this run:
   NWRITE =      2    write-flag & timer
   PREC   = accura    normal or accurate (medium, high low for compatibility)
   ISTART =      0    job   : 0-new  1-cont  2-samecut
   ICHARG =      2    charge: 1-file 2-atom 10-const
   ISPIN  =      1    spin polarized calculation?
   LNONCOLLINEAR =      F non collinear calculations
   LSORBIT =      F    spin-orbit coupling
   INIWAV =      1    electr: 0-lowe 1-rand  2-diag
   LASPH  =      F    aspherical Exc in radial PAW
   METAGGA=      F    non-selfconsistent MetaGGA calc.

 Electronic Relaxation 1
   ENCUT  =  359.7 eV  26.44 Ry    5.14 a.u.  11.93 11.93 13.99*2*pi/ulx,y,z
   ENINI  =  359.7     initial cutoff
   ENAUG  =  575.9 eV  augmentation charge cutoff
   NELM   =     60;   NELMIN=  5; NELMDL= -5     # of ELM steps
   EDIFF  = 0.1E-07   stopping-criterion for ELM
   LREAL  =      F    real-space projection
   NLSPLINE    = F    spline interpolate recip. space projectors
   LCOMPAT=      F    compatible to vasp.4.4
   GGA_COMPAT  = T    GGA compatible to vasp.4.4-vasp.4.6
   LMAXPAW     = -100 max onsite density
   LMAXMIX     =    2 max onsite mixed and CHGCAR
   VOSKOWN=      0    Vosko Wilk Nusair interpolation
   ROPT   =    0.00000   0.00000   0.00000
 Ionic relaxation
   EDIFFG = 0.1E-06   stopping-criterion for IOM
   NSW    =      0    number of steps for IOM
   NBLOCK =      1;   KBLOCK =      1    inner block; outer block
   IBRION =     -1    ionic relax: 0-MD 1-quasi-New 2-CG
   NFREE  =      0    steps in history (QN), initial steepest desc. (CG)
   ISIF   =      2    stress and relaxation
   IWAVPR =     10    prediction:  0-non 1-charg 2-wave 3-comb
   ISYM   =      2    0-nonsym 1-usesym 2-fastsym
   LCORR  =      T    Harris-Foulkes like correction to forces

   POTIM  = 0.5000    time-step for ionic-motion
   TEIN   =    0.0    initial temperature
   TEBEG  =    0.0;   TEEND  =   0.0 temperature during run
   SMASS  =  -3.00    Nose mass-parameter (am)
   estimated Nose-frequenzy (Omega)   =  0.10E-29 period in steps =****** mass=  -0.136E-26a.u.
   SCALEE = 1.0000    scale energy and forces
   NPACO  =    256;   APACO  = 16.0  distance and # of slots for P.C.
   PSTRESS=    0.0 pullay stress

  Mass of Ions in am
   POMASS =  30.97 32.07 65.39
  Ionic Valenz
   ZVAL   =   5.00  6.00 12.00
  Atomic Wigner-Seitz radii
   RWIGS  =  -1.00 -1.00 -1.00
  virtual crystal weights
   VCA    =   1.00  1.00  1.00
   NELECT =     188.0000    total number of electrons
   NUPDOWN=      -1.0000    fix difference up-down

 DOS related values:
   EMIN   =  10.00;   EMAX   =-10.00  energy-range for DOS
   EFERMI =   0.00
   ISMEAR =     0;   SIGMA  =   0.01  broadening in eV -4-tet -1-fermi 0-gaus

 Electronic relaxation 2 (details)
   IALGO  =     38    algorithm
   LDIAG  =      T    sub-space diagonalisation (order eigenvalues)
   LSUBROT=      F    optimize rotation matrix (better conditioning)
   TURBO    =      0    0=normal 1=particle mesh
   IRESTART =      0    0=no restart 2=restart with 2 vectors
   NREBOOT  =      0    no. of reboots
   NMIN     =      0    reboot dimension
   EREF     =   0.00    reference energy to select bands
   IMIX   =      4    mixing-type and parameters
     AMIX     =   0.40;   BMIX     =  1.00
     AMIX_MAG =   1.60;   BMIX_MAG =  1.00
     AMIN     =   0.10
     WC   =   100.;   INIMIX=   1;  MIXPRE=   1;  MAXMIX= -45

 Intra band minimization:
   WEIMIN = 0.0000     energy-eigenvalue tresh-hold
   EBREAK =  0.21E-10  absolut break condition
   DEPER  =   0.30     relativ break condition

   TIME   =   0.40     timestep for ELM

  volume/ion in A,a.u.               =      20.70       139.68
  Fermi-wavevector in a.u.,A,eV,Ry     =   1.152977  2.178810 18.086975  1.329355
  Thomas-Fermi vector in A             =   2.289624

 Write flags
   LWAVE        =      F    write WAVECAR
   LDOWNSAMPLE  =      F    k-point downsampling of WAVECAR
   LCHARG       =      F    write CHGCAR
   LVTOT        =      F    write LOCPOT, total local potential
   LVHAR        =      F    write LOCPOT, Hartree potential only
   LELF         =      F    write electronic localiz. function (ELF)
   LORBIT       =      0    0 simple, 1 ext, 2 COOP (PROOUT), +10 PAW based schemes


 Dipole corrections
   LMONO  =      F    monopole corrections only (constant potential shift)
   LDIPOL =      F    correct potential (dipole corrections)
   IDIPOL =      0    1-x, 2-y, 3-z, 4-all directions
   EPSILON=  1.0000000 bulk dielectric constant

 Exchange correlation treatment:
   GGA     =    PS    GGA type
   LEXCH   =    14    internal setting for exchange type
   VOSKOWN=      0    Vosko Wilk Nusair interpolation
   LHFCALC =     F    Hartree Fock is set to
   LHFONE  =     F    Hartree Fock one center treatment
   AEXX    =    0.0000 exact exchange contribution

 Linear response parameters
   LEPSILON=     T    determine dielectric tensor
   LRPA    =     F    only Hartree local field effects (RPA)
   LNABLA  =     F    use nabla operator in PAW spheres
   LVEL    =     F    velocity operator in full k-point grid
   LINTERFAST=   F  fast interpolation
   KINTER  =     0    interpolate to denser k-point grid
   CSHIFT  =0.1000    complex shift for real part using Kramers Kronig
   OMEGAMAX=  -1.0    maximum frequency
   DEG_THRESHOLD= 0.2000000E-02 threshold for treating states as degnerate
   RTIME   =   -0.100 relaxation time in fs
  (WPLASMAI=    0.000 imaginary part of plasma frequency in eV, 0.658/RTIME)
   DFIELD  = 0.0000000 0.0000000 0.0000000 field for delta impulse in time

 Orbital magnetization related:
   ORBITALMAG=     F  switch on orbital magnetization
   LCHIMAG   =     F  perturbation theory with respect to B field
   DQ        =  0.001000  dq finite difference perturbation B field
   LLRAUG    =     F  two centre corrections for induced B field



--------------------------------------------------------------------------------------------------------


 Static calculation
 charge density and potential will be updated during run
 non-spin polarized calculation
 Variant of blocked Davidson
 Davidson routine will perform the subspace rotation
 perform sub-space diagonalisation
    after iterative eigenvector-optimisation
 modified Broyden-mixing scheme, WC =      100.0
 initial mixing is a Kerker type mixing with AMIX =  0.4000 and BMIX =      1.0000
 Hartree-type preconditioning will be used
 using additional bands           26
 reciprocal scheme for non local part
 use partial core corrections
 calculate Harris-corrections to forces
   (improved forces if not selfconsistent)
 use gradient corrections
 use of overlap-Matrix (Vanderbilt PP)
 Gauss-broadening in eV      SIGMA  =   0.01


--------------------------------------------------------------------------------------------------------


  energy-cutoff  :      359.74
  volume of cell :      538.17
      direct lattice vectors                 reciprocal lattice vectors
     7.714399520  0.000000000  0.000000000     0.129627717  0.000000000  0.000000000
     0.000000000  7.714399520  0.000000000     0.000000000  0.129627717  0.000000000
     0.000000000  0.000000000  9.043083480     0.000000000  0.000000000  0.110581750

  length of vectors
     7.714399520  7.714399520  9.043083480     0.129627717  0.129627717  0.110581750



 k-points in units of 2pi/SCALE and weight: Automatic mesh
   0.00000000  0.00000000  0.00000000       0.056
   0.04320924  0.00000000  0.00000000       0.222
   0.04320924  0.04320924  0.00000000       0.222
   0.00000000  0.00000000  0.05529088       0.056
   0.04320924  0.00000000  0.05529088       0.222
   0.04320924  0.04320924  0.05529088       0.222

 k-points in reciprocal lattice and weights: Automatic mesh
   0.00000000  0.00000000  0.00000000       0.056
   0.33333333  0.00000000  0.00000000       0.222
   0.33333333  0.33333333  0.00000000       0.222
   0.00000000  0.00000000  0.50000000       0.056
   0.33333333  0.00000000  0.50000000       0.222
   0.33333333  0.33333333  0.50000000       0.222

 position of ions in fractional coordinates (direct lattice)
   0.75695528  0.74304472  0.75000000
   0.74304472  0.24304472  0.25000000
   0.25695528  0.75695528  0.25000000
   0.24304472  0.25695528  0.75000000
   0.48300358  0.24805659  0.64059019
   0.24805659  0.51699642  0.35940981
   0.74805659  0.98300358  0.85940981
   0.25194341  0.01699642  0.85940981
   0.01699642  0.74805659  0.14059019
   0.98300358  0.25194341  0.14059019
   0.97065764  0.76678893  0.62314772
   0.76678893  0.02934236  0.37685228
   0.23321107  0.97065764  0.37685228
   0.02934236  0.23321107  0.62314772
   0.73321107  0.52934236  0.87685228
   0.26678893  0.47065764  0.87685228
   0.47065764  0.73321107  0.12314772
   0.52934236  0.26678893  0.12314772
   0.51699642  0.75194341  0.64059019
   0.75194341  0.48300358  0.35940981
   0.00000000  0.50000000  0.98510933
   0.50000000  0.00000000  0.01489067
   0.00000000  0.50000000  0.51489067
   0.50000000  0.00000000  0.48510933
   0.50000000  0.50000000  0.50000000
   0.00000000  0.00000000  0.00000000

 position of ions in cartesian coordinates  (Angst):
   5.83945545  5.73214383  6.78231261
   5.73214383  1.87494407  2.26077087
   1.98225569  5.83945545  2.26077087
   1.87494407  1.98225569  6.78231261
   3.72608259  1.91360764  5.79291056
   1.91360764  3.98831693  3.25017292
   5.77080740  7.58328235  7.77171466
   1.94359212  0.13111717  7.77171466
   0.13111717  5.77080740  1.27136882
   7.58328235  1.94359212  1.27136882
   7.48804083  5.91531615  5.63517685
   5.91531615  0.22635869  3.40790663
   1.79908337  7.48804083  3.40790663
   0.22635869  1.79908337  5.63517685
   5.65628313  4.08355845  7.92944837
   2.05811639  3.63084107  7.92944837
   3.63084107  5.65628313  1.11363511
   4.08355845  2.05811639  1.11363511
   3.98831693  5.80079188  5.79291056
   5.80079188  3.72608259  3.25017292
   0.00000000  3.85719976  8.90842591
   3.85719976  0.00000000  0.13465757
   0.00000000  3.85719976  4.65619931
   3.85719976  0.00000000  4.38688417
   3.85719976  3.85719976  4.52154174
   0.00000000  0.00000000  0.00000000



--------------------------------------------------------------------------------------------------------


 k-point  1 :   0.0000 0.0000 0.0000  plane waves:    8319
 k-point  2 :   0.3333 0.0000 0.0000  plane waves:    8330
 k-point  3 :   0.3333 0.3333 0.0000  plane waves:    8339
 k-point  4 :   0.0000 0.0000 0.5000  plane waves:    8324
 k-point  5 :   0.3333 0.0000 0.5000  plane waves:    8324
 k-point  6 :   0.3333 0.3333 0.5000  plane waves:    8352

 maximum and minimum number of plane-waves per node :      8352     8319

 maximum number of plane-waves:      8352
 maximum index in each direction:
   IXMAX=   11   IYMAX=   11   IZMAX=   13
   IXMIN=  -12   IYMIN=  -12   IZMIN=  -14


 serial   3D FFT for wavefunctions
 parallel 3D FFT for charge:
    minimum data exchange during FFTs selected (reduces bandwidth)


 total amount of memory used by VASP MPI-rank0    77581. kBytes
=======================================================================

   base      :      30000. kBytes
   nonl-proj :      25146. kBytes
   fftplans  :       8371. kBytes
   grid      :       8684. kBytes
   one-center:        404. kBytes
   wavefun   :       4976. kBytes

     INWAV:  cpu time    0.0000: real time    0.0003
 Broyden mixing: mesh for mixing (old mesh)
   NGX = 23   NGY = 23   NGZ = 27
  (NGX  = 96   NGY  = 96   NGZ  =112)
  gives a total of  14283 points

 initial charge density was supplied:
 charge density of overlapping atoms calculated
 number of electron     188.0000000 magnetization
 keeping initial charge density in first step


--------------------------------------------------------------------------------------------------------


 Maximum index for augmentation-charges         3835 (set IRDMAX)


--------------------------------------------------------------------------------------------------------


 First call to EWALD:  gamma=   0.218
 Maximum number of real-space cells 3x 3x 3
 Maximum number of reciprocal cells 3x 3x 3

    FEWALD:  cpu time    0.0020: real time    0.0032


--------------------------------------- Iteration      1(   1)  ---------------------------------------


    POTLOK:  cpu time    0.0370: real time    0.0489
    SETDIJ:  cpu time    0.0410: real time    0.0404
     EDDAV:  cpu time    1.7607: real time    1.7815
       DOS:  cpu time    0.0000: real time    0.0005
    --------------------------------------------
      LOOP:  cpu time    1.8387: real time    1.8713

 eigenvalue-minimisations  :  1440
 total energy-change (2. order) : 0.1270161E+04  (-0.6631776E+04)
 number of electron     188.0000000 magnetization
 augmentation part      188.0000000 magnetization

 Free energy of the ion-electron system (eV)
  ---------------------------------------------------
  alpha Z        PSCENC =       445.08850385
  Ewald energy   TEWEN  =     -9828.87559551
  -Hartree energ DENC   =     -5387.27667475
  -exchange      EXHF   =         0.00000000
  -V(xc)+E(xc)   XCENC  =       563.40031397
  PAW double counting   =     12761.27117317   -13739.36478164
  entropy T*S    EENTRO =        -0.00130216
  eigenvalues    EBANDS =       849.92690218
  atomic energy  EATOM  =     15605.99281308
  Solvation  Ediel_sol  =         0.00000000
  ---------------------------------------------------
  free energy    TOTEN  =      1270.16135220 eV

  energy without entropy =     1270.16265435  energy(sigma->0) =     1270.16200327


--------------------------------------------------------------------------------------------------------




--------------------------------------- Iteration      1(   2)  ---------------------------------------


     EDDAV:  cpu time    1.8637: real time    1.8665
       DOS:  cpu time    0.0010: real time    0.0002
    --------------------------------------------
      LOOP:  cpu time    1.8647: real time    1.8667

 eigenvalue-minimisations  :  1580
 total energy-change (2. order) :-0.1232451E+04  (-0.1183826E+04)
 number of electron     188.0000000 magnetization
 augmentation part      188.0000000 magnetization

 Free energy of the ion-electron system (eV)
  ---------------------------------------------------
  alpha Z        PSCENC =       445.08850385
  Ewald energy   TEWEN  =     -9828.87559551
  -Hartree energ DENC   =     -5387.27667475
  -exchange      EXHF   =         0.00000000
  -V(xc)+E(xc)   XCENC  =       563.40031397
  PAW double counting   =     12761.27117317   -13739.36478164
  entropy T*S    EENTRO =        -0.00000000
  eigenvalues    EBANDS =      -382.52556287
  atomic energy  EATOM  =     15605.99281308
  Solvation  Ediel_sol  =         0.00000000
  ---------------------------------------------------
  free energy    TOTEN  =        37.71018929 eV

  energy without entropy =       37.71018929  energy(sigma->0) =       37.71018929


--------------------------------------------------------------------------------------------------------




--------------------------------------- Iteration      1(   3)  ---------------------------------------


     EDDAV:  cpu time    1.9747: real time    1.9775
       DOS:  cpu time    0.0000: real time    0.0002
    --------------------------------------------
      LOOP:  cpu time    1.9747: real time    1.9778

 eigenvalue-minimisations  :  1700
 total energy-change (2. order) :-0.1522079E+03  (-0.1503388E+03)
 number of electron     188.0000000 magnetization
 augmentation part      188.0000000 magnetization

 Free energy of the ion-electron system (eV)
  ---------------------------------------------------
  alpha Z        PSCENC =       445.08850385
  Ewald energy   TEWEN  =     -9828.87559551
  -Hartree energ DENC   =     -5387.27667475
  -exchange      EXHF   =         0.00000000
  -V(xc)+E(xc)   XCENC  =       563.40031397
  PAW double counting   =     12761.27117317   -13739.36478164
  entropy T*S    EENTRO =        -0.00000000
  eigenvalues    EBANDS =      -534.73343924
  atomic energy  EATOM  =     15605.99281308
  Solvation  Ediel_sol  =         0.00000000
  ---------------------------------------------------
  free energy    TOTEN  =      -114.49768707 eV

  energy without entropy =     -114.49768707  energy(sigma->0) =     -114.49768707


--------------------------------------------------------------------------------------------------------




--------------------------------------- Iteration      1(   4)  ---------------------------------------


     EDDAV:  cpu time    2.1067: real time    2.1070
       DOS:  cpu time    0.0000: real time    0.0002
    --------------------------------------------
      LOOP:  cpu time    2.1067: real time    2.1072

 eigenvalue-minimisations  :  1800
 total energy-change (2. order) :-0.5057039E+01  (-0.5023537E+01)
 number of electron     188.0000000 magnetization
 augmentation part      188.0000000 magnetization

 Free energy of the ion-electron system (eV)
  ---------------------------------------------------
  alpha Z        PSCENC =       445.08850385
  Ewald energy   TEWEN  =     -9828.87559551
  -Hartree energ DENC   =     -5387.27667475
  -exchange      EXHF   =         0.00000000
  -V(xc)+E(xc)   XCENC  =       563.40031397
  PAW double counting   =     12761.27117317   -13739.36478164
  entropy T*S    EENTRO =        -0.00000000
  eigenvalues    EBANDS =      -539.79047776
  atomic energy  EATOM  =     15605.99281308
  Solvation  Ediel_sol  =         0.00000000
  ---------------------------------------------------
  free energy    TOTEN  =      -119.55472560 eV

  energy without entropy =     -119.55472560  energy(sigma->0) =     -119.55472560


--------------------------------------------------------------------------------------------------------




--------------------------------------- Iteration      1(   5)  ---------------------------------------


     EDDAV:  cpu time    2.0087: real time    2.0091
       DOS:  cpu time    0.0000: real time    0.0002
    CHARGE:  cpu time    0.1210: real time    0.1238
    MIXING:  cpu time    0.0030: real time    0.0013
    --------------------------------------------
      LOOP:  cpu time    2.1327: real time    2.1345

 eigenvalue-minimisations  :  1740
 total energy-change (2. order) :-0.1077645E+00  (-0.1076779E+00)
 number of electron     187.9999993 magnetization
 augmentation part       32.0298302 magnetization

 Broyden mixing:
  rms(total) = 0.36592E+01    rms(broyden)= 0.36590E+01
  rms(prec ) = 0.38492E+01
  weight for this iteration     100.00

 Free energy of the ion-electron system (eV)
  ---------------------------------------------------
  alpha Z        PSCENC =       445.08850385
  Ewald energy   TEWEN  =     -9828.87559551
  -Hartree energ DENC   =     -5387.27667475
  -exchange      EXHF   =         0.00000000
  -V(xc)+E(xc)   XCENC  =       563.40031397
  PAW double counting   =     12761.27117317   -13739.36478164
  entropy T*S    EENTRO =        -0.00000000
  eigenvalues    EBANDS =      -539.89824224
  atomic energy  EATOM  =     15605.99281308
  Solvation  Ediel_sol  =         0.00000000
  ---------------------------------------------------
  free energy    TOTEN  =      -119.66249008 eV

  energy without entropy =     -119.66249008  energy(sigma->0) =     -119.66249008


--------------------------------------------------------------------------------------------------------




--------------------------------------- Iteration      1(   6)  ---------------------------------------


    POTLOK:  cpu time    0.0350: real time    0.0383
    SETDIJ:  cpu time    0.0390: real time    0.0379
     EDDAV:  cpu time    2.3866: real time    2.3878
       DOS:  cpu time    0.0000: real time    0.0002
    CHARGE:  cpu time    0.1200: real time    0.1201
    MIXING:  cpu time    0.0010: real time    0.0014
    --------------------------------------------
      LOOP:  cpu time    2.5816: real time    2.5858

 eigenvalue-minimisations  :  2160
 total energy-change (2. order) : 0.4460669E+01  (-0.9066768E+00)
 number of electron     187.9999993 magnetization
 augmentation part       32.8601031 magnetization

 Broyden mixing:
  rms(total) = 0.25186E+01    rms(broyden)= 0.25185E+01
  rms(prec ) = 0.25680E+01
  weight for this iteration     100.00

 eigenvalues of (default mixing * dielectric matrix)
  average eigenvalue GAMMA=   2.5017
  2.5017

 Free energy of the ion-electron system (eV)
  ---------------------------------------------------
  alpha Z        PSCENC =       445.08850385
  Ewald energy   TEWEN  =     -9828.87559551
  -Hartree energ DENC   =     -5335.60598311
  -exchange      EXHF   =         0.00000000
  -V(xc)+E(xc)   XCENC  =       564.07994676
  PAW double counting   =     15725.36026824   -16684.52643942
  entropy T*S    EENTRO =        -0.00000000
  eigenvalues    EBANDS =      -606.71533544
  atomic energy  EATOM  =     15605.99281308
  Solvation  Ediel_sol  =         0.00000000
  ---------------------------------------------------
  free energy    TOTEN  =      -115.20182156 eV

  energy without entropy =     -115.20182156  energy(sigma->0) =     -115.20182156


--------------------------------------------------------------------------------------------------------




--------------------------------------- Iteration      1(   7)  ---------------------------------------


    POTLOK:  cpu time    0.0380: real time    0.0380
    SETDIJ:  cpu time    0.0390: real time    0.0379
     EDDAV:  cpu time    1.9537: real time    1.9551
       DOS:  cpu time    0.0000: real time    0.0003
    CHARGE:  cpu time    0.1200: real time    0.1204
    MIXING:  cpu time    0.0020: real time    0.0011
    --------------------------------------------
      LOOP:  cpu time    2.1527: real time    2.1528

 eigenvalue-minimisations  :  1680
 total energy-change (2. order) :-0.8135718E-01  (-0.1201424E+01)
 number of electron     187.9999993 magnetization
 augmentation part       32.9251985 magnetization

 Broyden mixing:
  rms(total) = 0.46500E+00    rms(broyden)= 0.46497E+00
  rms(prec ) = 0.54786E+00
  weight for this iteration     100.00

 eigenvalues of (default mixing * dielectric matrix)
  average eigenvalue GAMMA=   1.6546
  0.9495  2.3597

 Free energy of the ion-electron system (eV)
  ---------------------------------------------------
  alpha Z        PSCENC =       445.08850385
  Ewald energy   TEWEN  =     -9828.87559551
  -Hartree energ DENC   =     -5354.25909472
  -exchange      EXHF   =         0.00000000
  -V(xc)+E(xc)   XCENC  =       567.89890894
  PAW double counting   =     21479.64968100   -22464.62284837
  entropy T*S    EENTRO =        -0.00000000
  eigenvalues    EBANDS =      -566.15554700
  atomic energy  EATOM  =     15605.99281308
  Solvation  Ediel_sol  =         0.00000000
  ---------------------------------------------------
  free energy    TOTEN  =      -115.28317874 eV

  energy without entropy =     -115.28317874  energy(sigma->0) =     -115.28317874


--------------------------------------------------------------------------------------------------------




--------------------------------------- Iteration      1(   8)  ---------------------------------------


    POTLOK:  cpu time    0.0350: real time    0.0379
    SETDIJ:  cpu time    0.0390: real time    0.0379
     EDDAV:  cpu time    1.9647: real time    1.9653
       DOS:  cpu time    0.0000: real time    0.0002
    CHARGE:  cpu time    0.1200: real time    0.1202
    MIXING:  cpu time    0.0010: real time    0.0013
    --------------------------------------------
      LOOP:  cpu time    2.1597: real time    2.1628

 eigenvalue-minimisations  :  1700
 total energy-change (2. order) : 0.2451707E+00  (-0.9273874E-01)
 number of electron     187.9999993 magnetization
 augmentation part       32.8731463 magnetization

 Broyden mixing:
  rms(total) = 0.26268E+00    rms(broyden)= 0.26268E+00
  rms(prec ) = 0.28189E+00
  weight for this iteration     100.00

 eigenvalues of (default mixing * dielectric matrix)
  average eigenvalue GAMMA=   1.4725
  2.4000  1.0088  1.0088

 Free energy of the ion-electron system (eV)
  ---------------------------------------------------
  alpha Z        PSCENC =       445.08850385
  Ewald energy   TEWEN  =     -9828.87559551
  -Hartree energ DENC   =     -5344.79637250
  -exchange      EXHF   =         0.00000000
  -V(xc)+E(xc)   XCENC  =       566.97861033
  PAW double counting   =     22039.35714357   -23022.91122964
  entropy T*S    EENTRO =        -0.00000000
  eigenvalues    EBANDS =      -575.87188117
  atomic energy  EATOM  =     15605.99281308
  Solvation  Ediel_sol  =         0.00000000
  ---------------------------------------------------
  free energy    TOTEN  =      -115.03800800 eV

  energy without entropy =     -115.03800800  energy(sigma->0) =     -115.03800800


--------------------------------------------------------------------------------------------------------




--------------------------------------- Iteration      1(   9)  ---------------------------------------


    POTLOK:  cpu time    0.0360: real time    0.0379
    SETDIJ:  cpu time    0.0380: real time    0.0379
     EDDAV:  cpu time    2.0657: real time    2.0660
       DOS:  cpu time    0.0000: real time    0.0003
    CHARGE:  cpu time    0.1200: real time    0.1196
    MIXING:  cpu time    0.0010: real time    0.0012
    --------------------------------------------
      LOOP:  cpu time    2.2607: real time    2.2629

 eigenvalue-minimisations  :  1800
 total energy-change (2. order) : 0.2110846E-01  (-0.2198892E-01)
 number of electron     187.9999993 magnetization
 augmentation part       32.8578862 magnetization

 Broyden mixing:
  rms(total) = 0.11029E+00    rms(broyden)= 0.11028E+00
  rms(prec ) = 0.11325E+00
  weight for this iteration     100.00

 eigenvalues of (default mixing * dielectric matrix)
  average eigenvalue GAMMA=   1.4744
  2.3799  0.9782  1.2698  1.2698

 Free energy of the ion-electron system (eV)
  ---------------------------------------------------
  alpha Z        PSCENC =       445.08850385
  Ewald energy   TEWEN  =     -9828.87559551
  -Hartree energ DENC   =     -5339.49101079
  -exchange      EXHF   =         0.00000000
  -V(xc)+E(xc)   XCENC  =       566.65892651
  PAW double counting   =     22393.73541485   -23376.00274260
  entropy T*S    EENTRO =        -0.00000000
  eigenvalues    EBANDS =      -582.12320894
  atomic energy  EATOM  =     15605.99281308
  Solvation  Ediel_sol  =         0.00000000
  ---------------------------------------------------
  free energy    TOTEN  =      -115.01689954 eV

  energy without entropy =     -115.01689954  energy(sigma->0) =     -115.01689954


--------------------------------------------------------------------------------------------------------




--------------------------------------- Iteration      1(  10)  ---------------------------------------


    POTLOK:  cpu time    0.0380: real time    0.0380
    SETDIJ:  cpu time    0.0380: real time    0.0380
     EDDAV:  cpu time    2.1487: real time    2.1491
       DOS:  cpu time    0.0000: real time    0.0002
    CHARGE:  cpu time    0.1200: real time    0.1203
    MIXING:  cpu time    0.0010: real time    0.0012
    --------------------------------------------
      LOOP:  cpu time    2.3456: real time    2.3468

 eigenvalue-minimisations  :  1900
 total energy-change (2. order) :-0.1063005E-02  (-0.1872723E-02)
 number of electron     187.9999993 magnetization
 augmentation part       32.8617892 magnetization

 Broyden mixing:
  rms(total) = 0.49278E-01    rms(broyden)= 0.49277E-01
  rms(prec ) = 0.51914E-01
  weight for this iteration     100.00

 eigenvalues of (default mixing * dielectric matrix)
  average eigenvalue GAMMA=   1.4365
  2.2059  1.5225  1.5225  1.0013  0.9302

 Free energy of the ion-electron system (eV)
  ---------------------------------------------------
  alpha Z        PSCENC =       445.08850385
  Ewald energy   TEWEN  =     -9828.87559551
  -Hartree energ DENC   =     -5339.67924951
  -exchange      EXHF   =         0.00000000
  -V(xc)+E(xc)   XCENC  =       566.68571392
  PAW double counting   =     22367.28348305   -23349.39901852
  entropy T*S    EENTRO =        -0.00000000
  eigenvalues    EBANDS =      -582.11461290
  atomic energy  EATOM  =     15605.99281308
  Solvation  Ediel_sol  =         0.00000000
  ---------------------------------------------------
  free energy    TOTEN  =      -115.01796255 eV

  energy without entropy =     -115.01796255  energy(sigma->0) =     -115.01796255


--------------------------------------------------------------------------------------------------------




--------------------------------------- Iteration      1(  11)  ---------------------------------------


    POTLOK:  cpu time    0.0380: real time    0.0378
    SETDIJ:  cpu time    0.0380: real time    0.0380
     EDDAV:  cpu time    2.3266: real time    2.3279
       DOS:  cpu time    0.0000: real time    0.0003
    CHARGE:  cpu time    0.1200: real time    0.1202
    MIXING:  cpu time    0.0010: real time    0.0012
    --------------------------------------------
      LOOP:  cpu time    2.5236: real time    2.5253

 eigenvalue-minimisations  :  2060
 total energy-change (2. order) : 0.3497802E-03  (-0.4343416E-03)
 number of electron     187.9999993 magnetization
 augmentation part       32.8606869 magnetization

 Broyden mixing:
  rms(total) = 0.18568E-01    rms(broyden)= 0.18567E-01
  rms(prec ) = 0.19971E-01
  weight for this iteration     100.00

 eigenvalues of (default mixing * dielectric matrix)
  average eigenvalue GAMMA=   1.4586
  2.3594  2.3594  1.1344  1.1344  0.8820  0.8820

 Free energy of the ion-electron system (eV)
  ---------------------------------------------------
  alpha Z        PSCENC =       445.08850385
  Ewald energy   TEWEN  =     -9828.87559551
  -Hartree energ DENC   =     -5339.54920225
  -exchange      EXHF   =         0.00000000
  -V(xc)+E(xc)   XCENC  =       566.65263298
  PAW double counting   =     22331.37559316   -23313.31231807
  entropy T*S    EENTRO =        -0.00000000
  eigenvalues    EBANDS =      -582.39004000
  atomic energy  EATOM  =     15605.99281308
  Solvation  Ediel_sol  =         0.00000000
  ---------------------------------------------------
  free energy    TOTEN  =      -115.01761277 eV

  energy without entropy =     -115.01761277  energy(sigma->0) =     -115.01761277


--------------------------------------------------------------------------------------------------------




--------------------------------------- Iteration      1(  12)  ---------------------------------------


    POTLOK:  cpu time    0.0360: real time    0.0380
    SETDIJ:  cpu time    0.0390: real time    0.0380
     EDDAV:  cpu time    2.0787: real time    2.0798
       DOS:  cpu time    0.0000: real time    0.0003
    CHARGE:  cpu time    0.1200: real time    0.1201
    MIXING:  cpu time    0.0020: real time    0.0013
    --------------------------------------------
      LOOP:  cpu time    2.2757: real time    2.2774

 eigenvalue-minimisations  :  1800
 total energy-change (2. order) :-0.1003917E-03  (-0.1756190E-03)
 number of electron     187.9999993 magnetization
 augmentation part       32.8600208 magnetization

 Broyden mixing:
  rms(total) = 0.84022E-02    rms(broyden)= 0.84019E-02
  rms(prec ) = 0.90676E-02
  weight for this iteration     100.00

 eigenvalues of (default mixing * dielectric matrix)
  average eigenvalue GAMMA=   1.4532
  2.1626  2.1626  1.6225  1.2560  1.0995  1.0995  0.7699

 Free energy of the ion-electron system (eV)
  ---------------------------------------------------
  alpha Z        PSCENC =       445.08850385
  Ewald energy   TEWEN  =     -9828.87559551
  -Hartree energ DENC   =     -5339.42785406
  -exchange      EXHF   =         0.00000000
  -V(xc)+E(xc)   XCENC  =       566.63641323
  PAW double counting   =     22310.83727041   -23292.65585685
  entropy T*S    EENTRO =        -0.00000000
  eigenvalues    EBANDS =      -582.61340731
  atomic energy  EATOM  =     15605.99281308
  Solvation  Ediel_sol  =         0.00000000
  ---------------------------------------------------
  free energy    TOTEN  =      -115.01771316 eV

  energy without entropy =     -115.01771316  energy(sigma->0) =     -115.01771316


--------------------------------------------------------------------------------------------------------




--------------------------------------- Iteration      1(  13)  ---------------------------------------


    POTLOK:  cpu time    0.0350: real time    0.0377
    SETDIJ:  cpu time    0.0390: real time    0.0380
     EDDAV:  cpu time    2.1217: real time    2.1223
       DOS:  cpu time    0.0000: real time    0.0003
    CHARGE:  cpu time    0.1190: real time    0.1193
    MIXING:  cpu time    0.0020: real time    0.0013
    --------------------------------------------
      LOOP:  cpu time    2.3166: real time    2.3188

 eigenvalue-minimisations  :  1740
 total energy-change (2. order) :-0.1575208E-04  (-0.2019601E-04)
 number of electron     187.9999993 magnetization
 augmentation part       32.8602109 magnetization

 Broyden mixing:
  rms(total) = 0.39936E-02    rms(broyden)= 0.39935E-02
  rms(prec ) = 0.44573E-02
  weight for this iteration     100.00

 eigenvalues of (default mixing * dielectric matrix)
  average eigenvalue GAMMA=   1.5114
  2.4038  2.4038  2.2781  1.0042  1.0042  1.1197  1.1197  0.7580

 Free energy of the ion-electron system (eV)
  ---------------------------------------------------
  alpha Z        PSCENC =       445.08850385
  Ewald energy   TEWEN  =     -9828.87559551
  -Hartree energ DENC   =     -5339.54653707
  -exchange      EXHF   =         0.00000000
  -V(xc)+E(xc)   XCENC  =       566.64871322
  PAW double counting   =     22307.73267196   -23289.59472946
  entropy T*S    EENTRO =        -0.00000000
  eigenvalues    EBANDS =      -582.46356898
  atomic energy  EATOM  =     15605.99281308
  Solvation  Ediel_sol  =         0.00000000
  ---------------------------------------------------
  free energy    TOTEN  =      -115.01772891 eV

  energy without entropy =     -115.01772891  energy(sigma->0) =     -115.01772891


--------------------------------------------------------------------------------------------------------




--------------------------------------- Iteration      1(  14)  ---------------------------------------


    POTLOK:  cpu time    0.0370: real time    0.0380
    SETDIJ:  cpu time    0.0390: real time    0.0379
     EDDAV:  cpu time    2.0767: real time    2.0776
       DOS:  cpu time    0.0000: real time    0.0002
    CHARGE:  cpu time    0.1200: real time    0.1197
    MIXING:  cpu time    0.0010: real time    0.0013
    --------------------------------------------
      LOOP:  cpu time    2.2737: real time    2.2747

 eigenvalue-minimisations  :  1800
 total energy-change (2. order) :-0.1715956E-04  (-0.3743596E-05)
 number of electron     187.9999993 magnetization
 augmentation part       32.8589834 magnetization

 Broyden mixing:
  rms(total) = 0.19383E-02    rms(broyden)= 0.19382E-02
  rms(prec ) = 0.20659E-02
  weight for this iteration     100.00

 eigenvalues of (default mixing * dielectric matrix)
  average eigenvalue GAMMA=   1.4438
  2.4718  2.1020  2.1020  1.2364  1.2364  1.1055  1.1055  0.8648  0.7696

 Free energy of the ion-electron system (eV)
  ---------------------------------------------------
  alpha Z        PSCENC =       445.08850385
  Ewald energy   TEWEN  =     -9828.87559551
  -Hartree energ DENC   =     -5339.62002533
  -exchange      EXHF   =         0.00000000
  -V(xc)+E(xc)   XCENC  =       566.65673291
  PAW double counting   =     22309.83116162   -23291.73351018
  entropy T*S    EENTRO =        -0.00000000
  eigenvalues    EBANDS =      -582.35782652
  atomic energy  EATOM  =     15605.99281308
  Solvation  Ediel_sol  =         0.00000000
  ---------------------------------------------------
  free energy    TOTEN  =      -115.01774607 eV

  energy without entropy =     -115.01774607  energy(sigma->0) =     -115.01774607


--------------------------------------------------------------------------------------------------------




--------------------------------------- Iteration      1(  15)  ---------------------------------------


    POTLOK:  cpu time    0.0380: real time    0.0378
    SETDIJ:  cpu time    0.0380: real time    0.0378
     EDDAV:  cpu time    2.2827: real time    2.2840
       DOS:  cpu time    0.0000: real time    0.0003
    CHARGE:  cpu time    0.1200: real time    0.1203
    MIXING:  cpu time    0.0010: real time    0.0013
    --------------------------------------------
      LOOP:  cpu time    2.4796: real time    2.4814

 eigenvalue-minimisations  :  2020
 total energy-change (2. order) :-0.5942638E-07  (-0.8031554E-06)
 number of electron     187.9999993 magnetization
 augmentation part       32.8593885 magnetization

 Broyden mixing:
  rms(total) = 0.10352E-02    rms(broyden)= 0.10350E-02
  rms(prec ) = 0.10879E-02
  weight for this iteration     100.00

 eigenvalues of (default mixing * dielectric matrix)
  average eigenvalue GAMMA=   1.4005
  2.4707  2.0806  2.0806  1.3348  1.3348  1.1089  1.1089  0.8696  0.8696  0.7465

 Free energy of the ion-electron system (eV)
  ---------------------------------------------------
  alpha Z        PSCENC =       445.08850385
  Ewald energy   TEWEN  =     -9828.87559551
  -Hartree energ DENC   =     -5339.58589371
  -exchange      EXHF   =         0.00000000
  -V(xc)+E(xc)   XCENC  =       566.65652395
  PAW double counting   =     22312.85805133   -23294.74375536
  entropy T*S    EENTRO =        -0.00000000
  eigenvalues    EBANDS =      -582.40839377
  atomic energy  EATOM  =     15605.99281308
  Solvation  Ediel_sol  =         0.00000000
  ---------------------------------------------------
  free energy    TOTEN  =      -115.01774613 eV

  energy without entropy =     -115.01774613  energy(sigma->0) =     -115.01774613


--------------------------------------------------------------------------------------------------------




--------------------------------------- Iteration      1(  16)  ---------------------------------------


    POTLOK:  cpu time    0.0360: real time    0.0379
    SETDIJ:  cpu time    0.0390: real time    0.0378
     EDDAV:  cpu time    2.0717: real time    2.0731
       DOS:  cpu time    0.0010: real time    0.0002
    CHARGE:  cpu time    0.1190: real time    0.1201
    MIXING:  cpu time    0.0020: real time    0.0014
    --------------------------------------------
      LOOP:  cpu time    2.2687: real time    2.2706

 eigenvalue-minimisations  :  1820
 total energy-change (2. order) :-0.7692433E-06  (-0.2226869E-06)
 number of electron     187.9999993 magnetization
 augmentation part       32.8594596 magnetization

 Broyden mixing:
  rms(total) = 0.42424E-03    rms(broyden)= 0.42375E-03
  rms(prec ) = 0.45703E-03
  weight for this iteration     100.00

 eigenvalues of (default mixing * dielectric matrix)
  average eigenvalue GAMMA=   1.4355
  2.4989  2.2983  1.7903  1.7903  1.3902  1.1985  1.1985  0.9830  0.9830  0.7594
  0.9002

 Free energy of the ion-electron system (eV)
  ---------------------------------------------------
  alpha Z        PSCENC =       445.08850385
  Ewald energy   TEWEN  =     -9828.87559551
  -Hartree energ DENC   =     -5339.59720293
  -exchange      EXHF   =         0.00000000
  -V(xc)+E(xc)   XCENC  =       566.65706686
  PAW double counting   =     22312.46711589   -23294.35505455
  entropy T*S    EENTRO =        -0.00000000
  eigenvalues    EBANDS =      -582.39539359
  atomic energy  EATOM  =     15605.99281308
  Solvation  Ediel_sol  =         0.00000000
  ---------------------------------------------------
  free energy    TOTEN  =      -115.01774690 eV

  energy without entropy =     -115.01774690  energy(sigma->0) =     -115.01774690


--------------------------------------------------------------------------------------------------------




--------------------------------------- Iteration      1(  17)  ---------------------------------------


    POTLOK:  cpu time    0.0380: real time    0.0378
    SETDIJ:  cpu time    0.0380: real time    0.0378
     EDDAV:  cpu time    2.0637: real time    2.0642
       DOS:  cpu time    0.0000: real time    0.0002
    CHARGE:  cpu time    0.1210: real time    0.1212
    MIXING:  cpu time    0.0030: real time    0.0025
    --------------------------------------------
      LOOP:  cpu time    2.2637: real time    2.2638

 eigenvalue-minimisations  :  1780
 total energy-change (2. order) :-0.3738332E-06  (-0.2949911E-07)
 number of electron     187.9999993 magnetization
 augmentation part       32.8594326 magnetization

 Broyden mixing:
  rms(total) = 0.13421E-03    rms(broyden)= 0.13268E-03
  rms(prec ) = 0.15070E-03
  weight for this iteration     100.00

 eigenvalues of (default mixing * dielectric matrix)
  average eigenvalue GAMMA=   1.4629
  2.6230  2.4169  2.0116  2.0116  1.3453  1.3453  1.1296  1.1296  0.7600  0.9317
  0.9249  0.9249

 Free energy of the ion-electron system (eV)
  ---------------------------------------------------
  alpha Z        PSCENC =       445.08850385
  Ewald energy   TEWEN  =     -9828.87559551
  -Hartree energ DENC   =     -5339.60638333
  -exchange      EXHF   =         0.00000000
  -V(xc)+E(xc)   XCENC  =       566.65752944
  PAW double counting   =     22312.31574964   -23294.20607900
  entropy T*S    EENTRO =        -0.00000000
  eigenvalues    EBANDS =      -582.38428544
  atomic energy  EATOM  =     15605.99281308
  Solvation  Ediel_sol  =         0.00000000
  ---------------------------------------------------
  free energy    TOTEN  =      -115.01774728 eV

  energy without entropy =     -115.01774728  energy(sigma->0) =     -115.01774728


--------------------------------------------------------------------------------------------------------




--------------------------------------- Iteration      1(  18)  ---------------------------------------


    POTLOK:  cpu time    0.0360: real time    0.0381
    SETDIJ:  cpu time    0.0380: real time    0.0378
     EDDAV:  cpu time    2.0137: real time    2.0139
       DOS:  cpu time    0.0010: real time    0.0002
    CHARGE:  cpu time    0.1190: real time    0.1201
    MIXING:  cpu time    0.0020: real time    0.0015
    --------------------------------------------
      LOOP:  cpu time    2.2097: real time    2.2117

 eigenvalue-minimisations  :  1760
 total energy-change (2. order) :-0.1438621E-06  (-0.8193283E-08)
 number of electron     187.9999993 magnetization
 augmentation part       32.8594370 magnetization

 Broyden mixing:
  rms(total) = 0.88933E-04    rms(broyden)= 0.86609E-04
  rms(prec ) = 0.91022E-04
  weight for this iteration     100.00

 eigenvalues of (default mixing * dielectric matrix)
  average eigenvalue GAMMA=   1.4848
  2.8590  2.3612  1.9981  1.9981  1.6218  1.6218  1.1641  1.1641  0.9814  0.9814
  0.7565  0.9011  0.8946

 Free energy of the ion-electron system (eV)
  ---------------------------------------------------
  alpha Z        PSCENC =       445.08850385
  Ewald energy   TEWEN  =     -9828.87559551
  -Hartree energ DENC   =     -5339.61059501
  -exchange      EXHF   =         0.00000000
  -V(xc)+E(xc)   XCENC  =       566.65775647
  PAW double counting   =     22312.21006720   -23294.10108479
  entropy T*S    EENTRO =        -0.00000000
  eigenvalues    EBANDS =      -582.37961270
  atomic energy  EATOM  =     15605.99281308
  Solvation  Ediel_sol  =         0.00000000
  ---------------------------------------------------
  free energy    TOTEN  =      -115.01774742 eV

  energy without entropy =     -115.01774742  energy(sigma->0) =     -115.01774742


--------------------------------------------------------------------------------------------------------




--------------------------------------- Iteration      1(  19)  ---------------------------------------


    POTLOK:  cpu time    0.0360: real time    0.0382
    SETDIJ:  cpu time    0.0380: real time    0.0378
     EDDAV:  cpu time    1.5458: real time    1.5466
       DOS:  cpu time    0.0010: real time    0.0002
    CHARGE:  cpu time    0.1180: real time    0.1190
    MIXING:  cpu time    0.0020: real time    0.0016
    --------------------------------------------
      LOOP:  cpu time    1.7407: real time    1.7435

 eigenvalue-minimisations  :  1200
 total energy-change (2. order) : 0.2631350E-07  (-0.1282877E-08)
 number of electron     187.9999993 magnetization
 augmentation part       32.8594345 magnetization

 Broyden mixing:
  rms(total) = 0.57292E-04    rms(broyden)= 0.53615E-04
  rms(prec ) = 0.55130E-04
  weight for this iteration     100.00

 eigenvalues of (default mixing * dielectric matrix)
  average eigenvalue GAMMA=   1.4854
  2.8941  2.2740  2.2740  1.8169  1.8169  1.7529  1.1966  1.1966  1.0432  1.0432
  0.7562  0.9474  0.8919  0.8919

 Free energy of the ion-electron system (eV)
  ---------------------------------------------------
  alpha Z        PSCENC =       445.08850385
  Ewald energy   TEWEN  =     -9828.87559551
  -Hartree energ DENC   =     -5339.61120959
  -exchange      EXHF   =         0.00000000
  -V(xc)+E(xc)   XCENC  =       566.65776710
  PAW double counting   =     22312.13625874   -23294.02738161
  entropy T*S    EENTRO =        -0.00000000
  eigenvalues    EBANDS =      -582.37890344
  atomic energy  EATOM  =     15605.99281308
  Solvation  Ediel_sol  =         0.00000000
  ---------------------------------------------------
  free energy    TOTEN  =      -115.01774739 eV

  energy without entropy =     -115.01774739  energy(sigma->0) =     -115.01774739


--------------------------------------------------------------------------------------------------------




--------------------------------------- Iteration      1(  20)  ---------------------------------------


    POTLOK:  cpu time    0.0360: real time    0.0381
    SETDIJ:  cpu time    0.0390: real time    0.0388
     EDDAV:  cpu time    1.4438: real time    1.4432
       DOS:  cpu time    0.0000: real time    0.0002
    CHARGE:  cpu time    0.1280: real time    0.1275
    MIXING:  cpu time    0.0020: real time    0.0016
    --------------------------------------------
      LOOP:  cpu time    1.6487: real time    1.6495

 eigenvalue-minimisations  :  1060
 total energy-change (2. order) : 0.1911394E-07  (-0.4250316E-09)
 number of electron     187.9999993 magnetization
 augmentation part       32.8594396 magnetization

 Broyden mixing:
  rms(total) = 0.34798E-04    rms(broyden)= 0.28339E-04
  rms(prec ) = 0.29121E-04
  weight for this iteration     100.00
  WARNING: grid for Broyden might be to small

 eigenvalues of (default mixing * dielectric matrix)
  average eigenvalue GAMMA=   1.4872
  2.9246  2.4637  2.4637  1.9666  1.9666  1.4160  1.4160  1.1341  1.1341  0.9580
  0.9580  0.7531  0.9814  0.8862  0.8862

 Free energy of the ion-electron system (eV)
  ---------------------------------------------------
  alpha Z        PSCENC =       445.08850385
  Ewald energy   TEWEN  =     -9828.87559551
  -Hartree energ DENC   =     -5339.61101071
  -exchange      EXHF   =         0.00000000
  -V(xc)+E(xc)   XCENC  =       566.65775680
  PAW double counting   =     22312.11805547   -23294.00890729
  entropy T*S    EENTRO =        -0.00000000
  eigenvalues    EBANDS =      -582.37936307
  atomic energy  EATOM  =     15605.99281308
  Solvation  Ediel_sol  =         0.00000000
  ---------------------------------------------------
  free energy    TOTEN  =      -115.01774737 eV

  energy without entropy =     -115.01774737  energy(sigma->0) =     -115.01774737


--------------------------------------------------------------------------------------------------------




--------------------------------------- Iteration      1(  21)  ---------------------------------------


    POTLOK:  cpu time    0.0350: real time    0.0378
    SETDIJ:  cpu time    0.0390: real time    0.0380
     EDDAV:  cpu time    1.4478: real time    1.4472
       DOS:  cpu time    0.0000: real time    0.0002
    CHARGE:  cpu time    0.1190: real time    0.1198
    MIXING:  cpu time    0.0020: real time    0.0020
    --------------------------------------------
      LOOP:  cpu time    1.6427: real time    1.6449

 eigenvalue-minimisations  :  1080
 total energy-change (2. order) : 0.1006993E-07  (-0.2119107E-09)
 number of electron     187.9999993 magnetization
 augmentation part       32.8594404 magnetization

 Broyden mixing:
  rms(total) = 0.23912E-04    rms(broyden)= 0.12808E-04
  rms(prec ) = 0.13181E-04
  weight for this iteration     100.00
  WARNING: grid for Broyden might be to small

 eigenvalues of (default mixing * dielectric matrix)
  average eigenvalue GAMMA=   1.5088
  2.9567  2.7370  2.2153  2.2153  1.8158  1.8158  1.5760  1.2185  1.2185  0.9742
  0.9742  1.0799  0.9589  0.9589  0.7608  0.6649

 Free energy of the ion-electron system (eV)
  ---------------------------------------------------
  alpha Z        PSCENC =       445.08850385
  Ewald energy   TEWEN  =     -9828.87559551
  -Hartree energ DENC   =     -5339.61088447
  -exchange      EXHF   =         0.00000000
  -V(xc)+E(xc)   XCENC  =       566.65775212
  PAW double counting   =     22312.12647837   -23294.01720791
  entropy T*S    EENTRO =        -0.00000000
  eigenvalues    EBANDS =      -582.37960689
  atomic energy  EATOM  =     15605.99281308
  Solvation  Ediel_sol  =         0.00000000
  ---------------------------------------------------
  free energy    TOTEN  =      -115.01774736 eV

  energy without entropy =     -115.01774736  energy(sigma->0) =     -115.01774736


--------------------------------------------------------------------------------------------------------




--------------------------------------- Iteration      1(  22)  ---------------------------------------


    POTLOK:  cpu time    0.0360: real time    0.0377
    SETDIJ:  cpu time    0.0390: real time    0.0379
     EDDAV:  cpu time    1.4248: real time    1.4249
       DOS:  cpu time    0.0000: real time    0.0002
    --------------------------------------------
      LOOP:  cpu time    1.4998: real time    1.5008

 eigenvalue-minimisations  :  1060
 total energy-change (2. order) :-0.2539309E-08  (-0.6150061E-10)
 number of electron     187.9999993 magnetization
 augmentation part       32.8594404 magnetization

 Free energy of the ion-electron system (eV)
  ---------------------------------------------------
  alpha Z        PSCENC =       445.08850385
  Ewald energy   TEWEN  =     -9828.87559551
  -Hartree energ DENC   =     -5339.61084185
  -exchange      EXHF   =         0.00000000
  -V(xc)+E(xc)   XCENC  =       566.65775425
  PAW double counting   =     22312.14357896   -23294.03425807
  entropy T*S    EENTRO =        -0.00000000
  eigenvalues    EBANDS =      -582.37970208
  atomic energy  EATOM  =     15605.99281308
  Solvation  Ediel_sol  =         0.00000000
  ---------------------------------------------------
  free energy    TOTEN  =      -115.01774737 eV

  energy without entropy =     -115.01774737  energy(sigma->0) =     -115.01774737


--------------------------------------------------------------------------------------------------------




 average (electrostatic) potential at core
  the test charge radii are     0.9587  0.9698  0.9521
  (the norm of the test charge is              1.0000)
       1 -87.0694       2 -87.0694       3 -87.0694       4 -87.0694       5 -88.3762
       6 -88.3762       7 -88.3762       8 -88.3762       9 -88.3762      10 -88.3762
      11 -87.8961      12 -87.8961      13 -87.8961      14 -87.8961      15 -87.8961
      16 -87.8961      17 -87.8961      18 -87.8961      19 -88.3762      20 -88.3762
      21 -35.4959      22 -35.4959      23 -35.4959      24 -35.4959      25 -35.7048
      26 -35.7048



 E-fermi :   2.9186     XC(G=0):  -9.5081     alpha+bet : -8.9881


 k-point     1 :       0.0000    0.0000    0.0000
  band No.  band energies     occupation
      1     -12.7487      2.00000
      2     -12.4718      2.00000
      3     -12.4148      2.00000
      4     -12.4148      2.00000
      5     -10.1692      2.00000
      6      -9.9847      2.00000
      7      -9.9602      2.00000
      8      -9.8974      2.00000
      9      -9.8357      2.00000
     10      -9.8095      2.00000
     11      -9.8095      2.00000
     12      -9.6290      2.00000
     13      -9.6290      2.00000
     14      -9.4911      2.00000
     15      -9.4911      2.00000
     16      -9.2241      2.00000
     17      -6.2322      2.00000
     18      -5.6540      2.00000
     19      -5.4831      2.00000
     20      -5.4831      2.00000
     21      -4.0675      2.00000
     22      -3.8633      2.00000
     23      -3.8569      2.00000
     24      -3.8380      2.00000
     25      -3.8003      2.00000
     26      -3.8003      2.00000
     27      -3.7696      2.00000
     28      -3.7285      2.00000
     29      -3.7285      2.00000
     30      -3.5979      2.00000
     31      -3.5679      2.00000
     32      -3.5472      2.00000
     33      -3.5403      2.00000
     34      -3.5403      2.00000
     35      -3.4972      2.00000
     36      -3.4535      2.00000
     37      -3.4535      2.00000
     38      -3.4115      2.00000
     39      -3.3880      2.00000
     40      -3.3819      2.00000
     41      -3.3582      2.00000
     42      -3.3551      2.00000
     43      -3.3551      2.00000
     44      -3.3482      2.00000
     45      -3.3313      2.00000
     46      -3.3174      2.00000
     47      -3.2776      2.00000
     48      -3.2109      2.00000
     49      -3.2109      2.00000
     50      -3.1797      2.00000
     51      -3.1161      2.00000
     52      -3.0444      2.00000
     53      -2.4413      2.00000
     54      -2.4413      2.00000
     55      -2.1621      2.00000
     56      -2.0090      2.00000
     57      -2.0090      2.00000
     58      -1.9923      2.00000
     59      -1.8776      2.00000
     60      -1.8035      2.00000
     61      -1.5829      2.00000
     62      -1.5829      2.00000
     63      -1.4594      2.00000
     64      -1.3267      2.00000
     65      -1.2150      2.00000
     66      -0.6090      2.00000
     67      -0.5010      2.00000
     68      -0.1278      2.00000
     69       0.0985      2.00000
     70       0.2803      2.00000
     71       0.2803      2.00000
     72       0.2848      2.00000
     73       0.6939      2.00000
     74       0.7624      2.00000
     75       0.8313      2.00000
     76       0.8313      2.00000
     77       0.9906      2.00000
     78       0.9906      2.00000
     79       1.0792      2.00000
     80       1.0792      2.00000
     81       1.4898      2.00000
     82       1.4898      2.00000
     83       1.6227      2.00000
     84       1.8669      2.00000
     85       1.8669      2.00000
     86       1.8791      2.00000
     87       1.9661      2.00000
     88       2.1346      2.00000
     89       2.1346      2.00000
     90       2.3012      2.00000
     91       2.4490      2.00000
     92       2.4490      2.00000
     93       2.7963      2.00000
     94       2.8734      2.00000
     95       5.1039      0.00000
     96       5.4731      0.00000
     97       5.5320      0.00000
     98       5.5583      0.00000
     99       5.5583      0.00000
    100       5.8852      0.00000
    101       5.9917      0.00000
    102       5.9993      0.00000
    103       5.9993      0.00000
    104       6.2749      0.00000
    105       6.5009      0.00000
    106       6.5009      0.00000
    107       6.6658      0.00000
    108       6.8099      0.00000
    109       7.2576      0.00000
    110       7.5986      0.00000
    111       7.7002      0.00000
    112       7.7002      0.00000
    113       7.8182      0.00000
    114       7.9765      0.00000
    115       8.0575      0.00000
    116       8.4511      0.00000
    117       8.5308      0.00000
    118       8.6269      0.00000
    119       8.7231      0.00000
    120       8.7237      0.00000

 k-point     2 :       0.3333    0.0000    0.0000
  band No.  band energies     occupation
      1     -12.6722      2.00000
      2     -12.5076      2.00000
      3     -12.4529      2.00000
      4     -12.4259      2.00000
      5     -10.0929      2.00000
      6      -9.9550      2.00000
      7      -9.9189      2.00000
      8      -9.9146      2.00000
      9      -9.9043      2.00000
     10      -9.8019      2.00000
     11      -9.7406      2.00000
     12      -9.7301      2.00000
     13      -9.6692      2.00000
     14      -9.5701      2.00000
     15      -9.4142      2.00000
     16      -9.2766      2.00000
     17      -6.0326      2.00000
     18      -5.6716      2.00000
     19      -5.5556      2.00000
     20      -5.4779      2.00000
     21      -3.9830      2.00000
     22      -3.8630      2.00000
     23      -3.8421      2.00000
     24      -3.8241      2.00000
     25      -3.7960      2.00000
     26      -3.7931      2.00000
     27      -3.7679      2.00000
     28      -3.7120      2.00000
     29      -3.6760      2.00000
     30      -3.6526      2.00000
     31      -3.6449      2.00000
     32      -3.5963      2.00000
     33      -3.5744      2.00000
     34      -3.4985      2.00000
     35      -3.4898      2.00000
     36      -3.4829      2.00000
     37      -3.4559      2.00000
     38      -3.4227      2.00000
     39      -3.4222      2.00000
     40      -3.3934      2.00000
     41      -3.3721      2.00000
     42      -3.3614      2.00000
     43      -3.3356      2.00000
     44      -3.3300      2.00000
     45      -3.3229      2.00000
     46      -3.2869      2.00000
     47      -3.2817      2.00000
     48      -3.2671      2.00000
     49      -3.1862      2.00000
     50      -3.0732      2.00000
     51      -3.0533      2.00000
     52      -2.8487      2.00000
     53      -2.8008      2.00000
     54      -2.3186      2.00000
     55      -2.2105      2.00000
     56      -2.0217      2.00000
     57      -2.0018      2.00000
     58      -1.9687      2.00000
     59      -1.9483      2.00000
     60      -1.8296      2.00000
     61      -1.6982      2.00000
     62      -1.6187      2.00000
     63      -1.4504      2.00000
     64      -1.2257      2.00000
     65      -0.8295      2.00000
     66      -0.4617      2.00000
     67      -0.2546      2.00000
     68      -0.2369      2.00000
     69      -0.1826      2.00000
     70       0.1338      2.00000
     71       0.2786      2.00000
     72       0.4181      2.00000
     73       0.4338      2.00000
     74       0.7010      2.00000
     75       0.7843      2.00000
     76       0.9157      2.00000
     77       0.9234      2.00000
     78       1.1016      2.00000
     79       1.1473      2.00000
     80       1.3036      2.00000
     81       1.3300      2.00000
     82       1.4996      2.00000
     83       1.5675      2.00000
     84       1.6234      2.00000
     85       1.7544      2.00000
     86       1.8333      2.00000
     87       1.8638      2.00000
     88       2.0090      2.00000
     89       2.0310      2.00000
     90       2.0783      2.00000
     91       2.2364      2.00000
     92       2.4291      2.00000
     93       2.4603      2.00000
     94       2.6783      2.00000
     95       5.2739      0.00000
     96       5.5336      0.00000
     97       5.6913      0.00000
     98       5.7104      0.00000
     99       6.1701      0.00000
    100       6.1772      0.00000
    101       6.4263      0.00000
    102       6.4456      0.00000
    103       6.4645      0.00000
    104       6.7170      0.00000
    105       6.7831      0.00000
    106       6.8336      0.00000
    107       6.8722      0.00000
    108       6.9519      0.00000
    109       7.1083      0.00000
    110       7.4215      0.00000
    111       7.4871      0.00000
    112       7.6493      0.00000
    113       7.6870      0.00000
    114       7.8117      0.00000
    115       7.8638      0.00000
    116       8.3372      0.00000
    117       8.5283      0.00000
    118       8.6466      0.00000
    119       8.8909      0.00000
    120       9.0383      0.00000

 k-point     3 :       0.3333    0.3333    0.0000
  band No.  band energies     occupation
      1     -12.6123      2.00000
      2     -12.4907      2.00000
      3     -12.4887      2.00000
      4     -12.4614      2.00000
      5     -10.0834      2.00000
      6     -10.0079      2.00000
      7      -9.9432      2.00000
      8      -9.9229      2.00000
      9      -9.8924      2.00000
     10      -9.8714      2.00000
     11      -9.7627      2.00000
     12      -9.7202      2.00000
     13      -9.5742      2.00000
     14      -9.4803      2.00000
     15      -9.4488      2.00000
     16      -9.3230      2.00000
     17      -5.8849      2.00000
     18      -5.6504      2.00000
     19      -5.5694      2.00000
     20      -5.5513      2.00000
     21      -3.9303      2.00000
     22      -3.8602      2.00000
     23      -3.8583      2.00000
     24      -3.8440      2.00000
     25      -3.8203      2.00000
     26      -3.7826      2.00000
     27      -3.7177      2.00000
     28      -3.7087      2.00000
     29      -3.6726      2.00000
     30      -3.6610      2.00000
     31      -3.6364      2.00000
     32      -3.5958      2.00000
     33      -3.5771      2.00000
     34      -3.5060      2.00000
     35      -3.4985      2.00000
     36      -3.4837      2.00000
     37      -3.4549      2.00000
[...]
  entropy T*S    EENTRO =         0.00000000
  eigenvalues    EBANDS =        -7.21588752
  ---------------------------------------------------
  free energy    TOTEN  =        -7.96579070 eV

  energy without entropy =       -7.96579070


----------------------------------------- Iteration    3(  17)  ---------------------------------------


   POT+DIJ:  cpu time    0.1500: real time    0.1496
    HAMIL1:  cpu time    0.6269: real time    0.6268
    LRDIAG:  cpu time    0.1280: real time    0.1284
    LRDIIS:  cpu time    2.2277: real time    2.2281
    LRDIAG:  cpu time    0.1240: real time    0.1234
    MIXING:  cpu time    0.0020: real time    0.0016
    --------------------------------------------
      LOOP:  cpu time    3.5345: real time    3.5355

 Broyden mixing:
  rms(total) = 0.31289E-05    rms(broyden)= 0.31273E-05
  rms(prec ) = 0.32572E-05
  weight for this iteration     100.00

 eigenvalues of (default mixing * dielectric matrix)
  average eigenvalue GAMMA=   1.4802
  3.2664  2.8148  2.4327  2.3167  1.8291  1.4964  1.2579  1.1575  1.1575  1.0246
  1.0246  0.8917  0.8028  0.4955  0.2353

 Free energy of the ion-electron system (eV)
  ---------------------------------------------------
  -Hartree energ DENC   =        -1.02393045
  -V(xc)+E(xc)   XCENC  =         0.28012267
  PAW double counting   =         4.78620898       -4.79230518
  entropy T*S    EENTRO =         0.00000000
  eigenvalues    EBANDS =        -7.21600147
  ---------------------------------------------------
  free energy    TOTEN  =        -7.96590544 eV

  energy without entropy =       -7.96590544


----------------------------------------- Iteration    3(  18)  ---------------------------------------


   POT+DIJ:  cpu time    0.1490: real time    0.1484
    HAMIL1:  cpu time    0.6219: real time    0.6220
    LRDIAG:  cpu time    0.1280: real time    0.1281
    LRDIIS:  cpu time    2.2087: real time    2.2086
    LRDIAG:  cpu time    0.1230: real time    0.1237
    MIXING:  cpu time    0.0020: real time    0.0016
    --------------------------------------------
      LOOP:  cpu time    3.5085: real time    3.5094

 Broyden mixing:
  rms(total) = 0.26184E-05    rms(broyden)= 0.26166E-05
  rms(prec ) = 0.27276E-05
  weight for this iteration     100.00

 eigenvalues of (default mixing * dielectric matrix)
  average eigenvalue GAMMA=   1.4729
  3.2919  2.8790  2.5390  2.3202  2.0799  1.5840  1.3370  1.2154  1.0831  1.0831
  0.9823  0.9823  0.8683  0.6685  0.4421  0.2107

 Free energy of the ion-electron system (eV)
  ---------------------------------------------------
  -Hartree energ DENC   =        -1.02393034
  -V(xc)+E(xc)   XCENC  =         0.28012253
  PAW double counting   =         4.78621002       -4.79230619
  entropy T*S    EENTRO =         0.00000000
  eigenvalues    EBANDS =        -7.21590646
  ---------------------------------------------------
  free energy    TOTEN  =        -7.96581044 eV

  energy without entropy =       -7.96581044


----------------------------------------- Iteration    3(  19)  ---------------------------------------


   POT+DIJ:  cpu time    0.1480: real time    0.1486
    HAMIL1:  cpu time    0.6229: real time    0.6220
    LRDIAG:  cpu time    0.1280: real time    0.1282
    LRDIIS:  cpu time    2.2037: real time    2.2044
    LRDIAG:  cpu time    0.1230: real time    0.1232
    MIXING:  cpu time    0.0010: real time    0.0017
    --------------------------------------------
      LOOP:  cpu time    3.5065: real time    3.5064

 Broyden mixing:
  rms(total) = 0.29337E-05    rms(broyden)= 0.29321E-05
  rms(prec ) = 0.30345E-05
  weight for this iteration     100.00

 eigenvalues of (default mixing * dielectric matrix)
  average eigenvalue GAMMA=   1.4125
  3.3292  2.9104  2.5133  2.3509  2.1281  1.4980  1.4980  1.1344  1.1344  1.0170
  1.0170  0.8565  0.8565  0.8218  0.4886  0.2758  0.1830

 Free energy of the ion-electron system (eV)
  ---------------------------------------------------
  -Hartree energ DENC   =        -1.02393011
  -V(xc)+E(xc)   XCENC  =         0.28012249
  PAW double counting   =         4.78620879       -4.79230497
  entropy T*S    EENTRO =         0.00000000
  eigenvalues    EBANDS =        -7.21598371
  ---------------------------------------------------
  free energy    TOTEN  =        -7.96588752 eV

  energy without entropy =       -7.96588752


----------------------------------------- Iteration    3(  20)  ---------------------------------------


   POT+DIJ:  cpu time    0.1490: real time    0.1485
    HAMIL1:  cpu time    0.6229: real time    0.6234
    LRDIAG:  cpu time    0.1340: real time    0.1335
    LRDIIS:  cpu time    2.1897: real time    2.1906
    LRDIAG:  cpu time    0.1230: real time    0.1231
    MIXING:  cpu time    0.0020: real time    0.0020
    --------------------------------------------
      LOOP:  cpu time    3.4975: real time    3.4986

 Broyden mixing:
  rms(total) = 0.28848E-05    rms(broyden)= 0.28833E-05
  rms(prec ) = 0.29606E-05
  weight for this iteration     100.00

 eigenvalues of (default mixing * dielectric matrix)
  average eigenvalue GAMMA=   1.3618
  3.3417  2.9087  2.5961  2.4010  2.1270  1.5762  1.4764  1.1127  1.1127  1.0859
  0.9531  0.9531  0.8349  0.5957  0.5957  0.4840  0.2260  0.1314

 Free energy of the ion-electron system (eV)
  ---------------------------------------------------
  -Hartree energ DENC   =        -1.02393016
  -V(xc)+E(xc)   XCENC  =         0.28012249
  PAW double counting   =         4.78621042       -4.79230662
  entropy T*S    EENTRO =         0.00000000
  eigenvalues    EBANDS =        -7.21591242
  ---------------------------------------------------
  free energy    TOTEN  =        -7.96581629 eV

  energy without entropy =       -7.96581629


------------------------ aborting loop because EDIFF is reached ----------------------------------------


 change of polarisation eV/A/(eV/A) component  3 :     0.000    -0.000    15.381
 dielectric tensor                  component  3 :     0.000    -0.000     6.172


--------------------------------------------------------------------------------------------------------


    FORLOC:  cpu time    0.0090: real time    0.0084
    FORNL :  cpu time    1.0588: real time    1.0590
    STRESS:  cpu time    2.5686: real time    2.5686
    FORCOR:  cpu time    0.0410: real time    0.0411
    OFIELD:  cpu time    0.0000: real time    0.0003
    FORLOC:  cpu time    0.0090: real time    0.0082
    FORNL :  cpu time    1.0608: real time    1.0604
    STRESS:  cpu time    2.5736: real time    2.5724
    FORCOR:  cpu time    0.0410: real time    0.0412
    OFIELD:  cpu time    0.0000: real time    0.0003
    FORNLD:  cpu time    1.7037: real time    1.7023

 PIEZOELECTRIC TENSOR FIELD DIRECTION 3  (e Angst)
 -----------------------------------------------------------------------------
    19.16634  0.00000  0.00000           ( -0.07307  0.00000  0.00000)
     0.00000-19.16621  0.00000           (  0.00000  0.07307  0.00000)
     0.00000  0.00000 -0.00012           (  0.00000  0.00000 -0.00000)

 PIEZOELECTRIC TENSOR FIELD DIRECTION 3  (C/m^2)
 -----------------------------------------------------------------------------
     0.57060  0.00000  0.00000
     0.00000 -0.57059  0.00000
     0.00000  0.00000 -0.00000


      POSITION         DIRECTION 3           BORN EFFECTIVE CHARGE    (rigid.aug.   ionic)
 -----------------------------------------------------------------------------------------
      5.83946      5.73214      6.78231    -0.03222 -0.03222  3.07489 (  0.48679  5.00000)
      5.73214      1.87494      2.26077     0.03222 -0.03222  3.07489 (  0.48679  5.00000)
      1.98226      5.83946      2.26077    -0.03222  0.03222  3.07489 (  0.48679  5.00000)
      1.87494      1.98226      6.78231     0.03222  0.03222  3.07489 (  0.48679  5.00000)
      3.72608      1.91361      5.79291     0.79649 -0.02903 -1.54458 (  0.82880  6.00000)
      1.91361      3.98832      3.25017     0.02903  0.79648 -1.54459 (  0.82880  6.00000)
      5.77081      7.58328      7.77171     0.02903 -0.79648 -1.54459 (  0.82880  6.00000)
      1.94359      0.13112      7.77171    -0.02903  0.79648 -1.54459 (  0.82880  6.00000)
      0.13112      5.77081      1.27137    -0.79649 -0.02903 -1.54458 (  0.82880  6.00000)
      7.58328      1.94359      1.27137     0.79649  0.02903 -1.54458 (  0.82880  6.00000)
      7.48804      5.91532      5.63518     0.58070 -0.36435 -1.48368 (  0.83504  6.00000)
      5.91532      0.22636      3.40791     0.36435  0.58070 -1.48368 (  0.83504  6.00000)
      1.79908      7.48804      3.40791    -0.36435 -0.58070 -1.48368 (  0.83504  6.00000)
      0.22636      1.79908      5.63518    -0.58070  0.36435 -1.48368 (  0.83504  6.00000)
      5.65628      4.08356      7.92945    -0.36435  0.58070 -1.48368 (  0.83504  6.00000)
      2.05812      3.63084      7.92945     0.36435 -0.58070 -1.48368 (  0.83504  6.00000)
      3.63084      5.65628      1.11364     0.58070  0.36435 -1.48368 (  0.83504  6.00000)
      4.08356      2.05812      1.11364    -0.58070 -0.36435 -1.48368 (  0.83504  6.00000)
      3.98832      5.80079      5.79291    -0.79649  0.02903 -1.54458 (  0.82880  6.00000)
      5.80079      3.72608      3.25017    -0.02903 -0.79648 -1.54459 (  0.82880  6.00000)
      0.00000      3.85720      8.90843     0.00000  0.00000  2.02022 ( -8.01945 12.00000)
      3.85720      0.00000      0.13466     0.00000  0.00000  2.02020 ( -8.01945 12.00000)
      0.00000      3.85720      4.65620     0.00000  0.00000  2.02020 ( -8.01945 12.00000)
      3.85720      0.00000      4.38688     0.00000  0.00000  2.02022 ( -8.01945 12.00000)
      3.85720      3.85720      4.52154     0.00000  0.00000  1.85516 ( -8.01978 12.00000)
      0.00000      0.00000      0.00000     0.00000  0.00000  1.85516 ( -8.01978 12.00000)
 -----------------------------------------------------------------------------------------
    total drift (improves with k-points):  -0.00000  0.00000 -0.13535




--------------------------------------------------------------------------------------------------------


  LATTYP: Found a simple tetragonal cell.
 ALAT       =     7.7143995200
 C/A-ratio  =     1.1722342687

  Lattice vectors:

 A1 = (   7.7143995200,   0.0000000000,   0.0000000000)
 A2 = (   0.0000000000,   7.7143995200,   0.0000000000)
 A3 = (   0.0000000000,   0.0000000000,   9.0430834800)


Analysis of symmetry for initial positions (statically):
=====================================================================
 Subroutine PRICEL returns:
 Original cell was already a primitive cell.


 Routine SETGRP: Setting up the symmetry group for a
 simple tetragonal supercell.


 Subroutine GETGRP returns: Found  8 space group operations
 (whereof  4 operations were pure point group operations)
 out of a pool of 16 trial point group operations.


The static configuration has the point symmetry S_4 .
 The point group associated with its full space group is D_2d.


Analysis of symmetry for dynamics (positions and initial velocities):
=====================================================================
 Subroutine PRICEL returns:
 Original cell was already a primitive cell.


 Routine SETGRP: Setting up the symmetry group for a
 simple tetragonal supercell.


 Subroutine GETGRP returns: Found  8 space group operations
 (whereof  4 operations were pure point group operations)
 out of a pool of 16 trial point group operations.


The dynamic configuration has the point symmetry S_4 .
 The point group associated with its full space group is D_2d.


 Subroutine INISYM returns: Found  8 space group operations
 (whereof  4 operations are pure point group operations),
 and found     1 'primitive' translations



 MACROSCOPIC STATIC DIELECTRIC TENSOR (including local field effects in DFT)
 ------------------------------------------------------
           5.894056     0.000000     0.000000
           0.000000     5.894056     0.000000
           0.000000     0.000000     6.171821
 ------------------------------------------------------



--------------------------------------------------------------------------------------------------------


  LATTYP: Found a simple tetragonal cell.
 ALAT       =     7.7143995200
 C/A-ratio  =     1.1722342687

  Lattice vectors:

 A1 = (   7.7143995200,   0.0000000000,   0.0000000000)
 A2 = (   0.0000000000,   7.7143995200,   0.0000000000)
 A3 = (   0.0000000000,   0.0000000000,   9.0430834800)


Analysis of symmetry for initial positions (statically):
=====================================================================
 Subroutine PRICEL returns:
 Original cell was already a primitive cell.


 Routine SETGRP: Setting up the symmetry group for a
 simple tetragonal supercell.


 Subroutine GETGRP returns: Found  8 space group operations
 (whereof  4 operations were pure point group operations)
 out of a pool of 16 trial point group operations.


The static configuration has the point symmetry S_4 .
 The point group associated with its full space group is D_2d.


Analysis of symmetry for dynamics (positions and initial velocities):
=====================================================================
 Subroutine PRICEL returns:
 Original cell was already a primitive cell.


 Routine SETGRP: Setting up the symmetry group for a
 simple tetragonal supercell.


 Subroutine GETGRP returns: Found  8 space group operations
 (whereof  4 operations were pure point group operations)
 out of a pool of 16 trial point group operations.


The dynamic configuration has the point symmetry S_4 .
 The point group associated with its full space group is D_2d.


 Subroutine INISYM returns: Found  8 space group operations
 (whereof  4 operations are pure point group operations),
 and found     1 'primitive' translations



--------------------------------------------------------------------------------------------------------




 MACROSCOPIC STATIC DIELECTRIC TENSOR (including local field effects in DFT)
 ------------------------------------------------------
           5.894056     0.000000     0.000000
           0.000000     5.894056     0.000000
           0.000000     0.000000     6.171821
 ------------------------------------------------------


 PIEZOELECTRIC TENSOR  for field in x, y, z        (e  Angst)
          XX          YY          ZZ          XY          YZ          ZX
  --------------------------------------------------------------------------------
  x    -0.01198     0.00382     0.00577     0.00000     0.00000    14.15952
  y     0.00377    -0.01199     0.00576     0.00000   -14.15948     0.00000
  z    19.16634   -19.16621    -0.00012     0.00000     0.00000     0.00000

 PIEZOELECTRIC TENSOR  for field in x, y, z        (C/m^2)
          XX          YY          ZZ          XY          YZ          ZX
  --------------------------------------------------------------------------------
  x     0.00000     0.00000    -0.00000     0.00000     0.00000     0.42154
  y     0.00000     0.00000     0.00000     0.00000    -0.42154     0.00000
  z     0.57059    -0.57059     0.00000     0.00000     0.00000     0.00000

 BORN EFFECTIVE CHARGES (in e, cummulative output)
 -------------------------------------------------
 ion    1
    1     2.80527    -0.26115     0.07348
    2    -0.26091     2.80541     0.07318
    3    -0.03222    -0.03222     3.08010
 ion    2
    1     2.80541     0.26092    -0.07318
    2     0.26091     2.80541     0.07318
    3     0.03222    -0.03222     3.08010
 ion    3
    1     2.80527     0.26115     0.07348
    2     0.26115     2.80527    -0.07349
    3    -0.03222     0.03222     3.08010
 ion    4
    1     2.80541    -0.26092    -0.07318
    2    -0.26115     2.80527    -0.07349
    3     0.03222     0.03222     3.08010
 ion    5
    1    -1.63734     0.02745     0.64493
    2     0.04171    -1.65958     0.00493
    3     0.79649    -0.02903    -1.53937
 ion    6
    1    -1.65958    -0.04172    -0.00494
    2    -0.02754    -1.63736     0.64517
    3     0.02903     0.79648    -1.53939
 ion    7
    1    -1.65958     0.04172    -0.00494
    2     0.02746    -1.63735    -0.64492
    3     0.02903    -0.79648    -1.53939
 ion    8
    1    -1.65965     0.04140     0.00559
    2     0.02754    -1.63736     0.64517
    3    -0.02903     0.79648    -1.53939
 ion    9
    1    -1.63736    -0.02753    -0.64518
    2    -0.04171    -1.65958     0.00493
    3    -0.79649    -0.02903    -1.53937
 ion   10
    1    -1.63734    -0.02745     0.64493
    2    -0.04139    -1.65965    -0.00559
    3     0.79649     0.02903    -1.53937
 ion   11
    1    -1.43496     0.35577     0.44815
    2     0.32884    -1.11831    -0.37088
    3     0.58070    -0.36435    -1.47847
 ion   12
    1    -1.11830    -0.32884     0.37089
    2    -0.35570    -1.43531     0.44861
    3     0.36435     0.58070    -1.47847
 ion   13
    1    -1.11832    -0.32824    -0.37099
    2    -0.35577    -1.43497    -0.44814
    3    -0.36435    -0.58070    -1.47847
 ion   14
    1    -1.43531     0.35570    -0.44861
    2     0.32825    -1.11831     0.37099
    3    -0.58070     0.36435    -1.47847
 ion   15
    1    -1.11832     0.32824    -0.37099
    2     0.35570    -1.43531     0.44861
    3    -0.36435     0.58070    -1.47847
 ion   16
    1    -1.11830     0.32884     0.37089
    2     0.35577    -1.43497    -0.44814
    3     0.36435    -0.58070    -1.47847
 ion   17
    1    -1.43496    -0.35577     0.44815
    2    -0.32825    -1.11831     0.37099
    3     0.58070     0.36435    -1.47847
 ion   18
    1    -1.43531    -0.35570    -0.44861
    2    -0.32884    -1.11831    -0.37088
    3    -0.58070    -0.36435    -1.47847
 ion   19
    1    -1.63736     0.02753    -0.64518
    2     0.04139    -1.65965    -0.00559
    3    -0.79649     0.02903    -1.53937
 ion   20
    1    -1.65965    -0.04140     0.00559
    2    -0.02746    -1.63735    -0.64492
    3    -0.02903    -0.79648    -1.53939
 ion   21
    1     1.91187     0.44030     0.00006
    2    -0.54375     2.13403     0.00000
    3     0.00000    -0.00000     2.02542
 ion   22
    1     2.13403     0.54375    -0.00000
    2    -0.44030     1.91187    -0.00006
    3     0.00000    -0.00000     2.02541
 ion   23
    1     2.13403    -0.54375    -0.00000
    2     0.44030     1.91187    -0.00006
    3     0.00000    -0.00000     2.02541
 ion   24
    1     1.91187    -0.44030     0.00006
    2     0.54375     2.13403     0.00000
    3     0.00000    -0.00000     2.02542
 ion   25
    1     2.04425     0.46277    -0.00020
    2    -0.46276     2.04425     0.00020
    3     0.00000    -0.00000     1.86037
 ion   26
    1     2.04425    -0.46277    -0.00020
    2     0.46276     2.04425     0.00020
    3     0.00000    -0.00000     1.86037


--------------------------------------------------------------------------------------------------------


     LOOP+:  cpu time  482.5766: real time  482.6366
    4ORBIT:  cpu time    0.0000: real time    0.0000

 total amount of memory used by VASP MPI-rank0    77581. kBytes
=======================================================================

   base      :      30000. kBytes
   nonl-proj :      25146. kBytes
   fftplans  :       8371. kBytes
   grid      :       8684. kBytes
   one-center:        404. kBytes
   wavefun   :       4976. kBytes



 General timing and accounting informations for this job:
 ========================================================

                  Total CPU time used (sec):      484.106
                            User time (sec):      482.260
                          System time (sec):        1.847
                         Elapsed time (sec):      484.273

                   Maximum memory used (kb):      193268.
                   Average memory used (kb):           0.

                          Minor page faults:        50611
                          Major page faults:           32
                 Voluntary context switches:         2601
