unknown system
           1
     7.714400    0.000000    0.000000
     0.000000    7.714400    0.000000
     0.000000    0.000000    9.043083
   P    S    Zn
   4  16   6
Direct configuration=     1
   0.75695528  0.74304472  0.75000000
   0.74304472  0.24304472  0.25000000
   0.25695528  0.75695528  0.25000000
   0.24304472  0.25695528  0.75000000
   0.48300358  0.24805659  0.64059019
   0.24805659  0.51699642  0.35940981
   0.74805659  0.98300358  0.85940981
   0.25194341  0.01699642  0.85940981
   0.01699642  0.74805659  0.14059019
   0.98300358  0.25194341  0.14059019
   0.97065764  0.76678893  0.62314772
   0.76678893  0.02934236  0.37685228
   0.23321107  0.97065764  0.37685228
   0.02934236  0.23321107  0.62314772
   0.73321107  0.52934236  0.87685228
   0.26678893  0.47065764  0.87685228
   0.47065764  0.73321107  0.12314772
   0.52934236  0.26678893  0.12314772
   0.51699642  0.75194341  0.64059019
   0.75194341  0.48300358  0.35940981
   0.00000000  0.50000000  0.98510933
   0.50000000  0.00000000  0.01489067
   0.00000000  0.50000000  0.51489067
   0.50000000  0.00000000  0.48510933
   0.50000000  0.50000000  0.50000000
   0.00000000  0.00000000  0.00000000
