<?xml version="1.0" encoding="ISO-8859-1"?>
<modeling>
 <generator>
  <i name="program" type="string">vasp </i>
  <i name="version" type="string">5.4.1  </i>
  <i name="subversion" type="string">05Feb16 (build Oct 11 2016 12:26:42) complex                          parallel </i>
  <i name="platform" type="string">UNITY_VASP_5.4.1 </i>
  <i name="date" type="string">2018 01 24 </i>
  <i name="time" type="string">16:09:51 </i>
 </generator>
 <incar>
  <i type="string" name="PREC">a</i>
  <i type="string" name="ALGO"> V</i>
  <i name="ENCUT">    350.00000000</i>
  <i type="int" name="NEDOS">  1000</i>
  <i name="EMIN">    -10.00000000</i>
  <i name="EMAX">     10.00000000</i>
  <i type="int" name="ISMEAR">     0</i>
  <i type="logical" name="LOPTICS"> T  </i>
  <v type="int" name="KPOINT_BSE">    -1     0     0     0</v>
 </incar>
 <kpoints>
  <generation param="Gamma">
   <v type="int" name="divisions">       7        7        7 </v>
   <v name="usershift">      0.00000000       0.00000000       0.00000000 </v>
   <v name="genvec1">      0.14285714       0.00000000       0.00000000 </v>
   <v name="genvec2">      0.00000000       0.14285714       0.00000000 </v>
   <v name="genvec3">      0.00000000       0.00000000       0.14285714 </v>
   <v name="shift">      0.00000000       0.00000000       0.00000000 </v>
  </generation>
  <varray name="kpointlist" >
   <v>       0.00000000       0.00000000       0.00000000 </v>
   <v>       0.14285714       0.00000000       0.00000000 </v>
   <v>       0.28571429       0.00000000       0.00000000 </v>
   <v>       0.42857143       0.00000000       0.00000000 </v>
   <v>       0.00000000       0.14285714       0.00000000 </v>
   <v>       0.14285714       0.14285714       0.00000000 </v>
   <v>       0.28571429       0.14285714       0.00000000 </v>
   <v>       0.42857143       0.14285714       0.00000000 </v>
   <v>       0.00000000       0.28571429       0.00000000 </v>
   <v>       0.14285714       0.28571429       0.00000000 </v>
   <v>       0.28571429       0.28571429       0.00000000 </v>
   <v>       0.42857143       0.28571429       0.00000000 </v>
   <v>       0.00000000       0.42857143       0.00000000 </v>
   <v>       0.14285714       0.42857143       0.00000000 </v>
   <v>       0.28571429       0.42857143       0.00000000 </v>
   <v>       0.42857143       0.42857143       0.00000000 </v>
   <v>       0.00000000       0.14285714       0.14285714 </v>
   <v>       0.14285714       0.14285714       0.14285714 </v>
   <v>       0.28571429       0.14285714       0.14285714 </v>
   <v>       0.42857143       0.14285714       0.14285714 </v>
   <v>       0.00000000       0.28571429       0.14285714 </v>
   <v>       0.14285714       0.28571429       0.14285714 </v>
   <v>       0.28571429       0.28571429       0.14285714 </v>
   <v>       0.42857143       0.28571429       0.14285714 </v>
   <v>       0.00000000       0.42857143       0.14285714 </v>
   <v>       0.14285714       0.42857143       0.14285714 </v>
   <v>       0.28571429       0.42857143       0.14285714 </v>
   <v>       0.42857143       0.42857143       0.14285714 </v>
   <v>       0.00000000      -0.42857143       0.14285714 </v>
   <v>       0.14285714      -0.42857143       0.14285714 </v>
   <v>       0.28571429      -0.42857143       0.14285714 </v>
   <v>       0.42857143      -0.42857143       0.14285714 </v>
   <v>       0.00000000      -0.28571429       0.14285714 </v>
   <v>       0.14285714      -0.28571429       0.14285714 </v>
   <v>       0.28571429      -0.28571429       0.14285714 </v>
   <v>       0.42857143      -0.28571429       0.14285714 </v>
   <v>       0.00000000      -0.14285714       0.14285714 </v>
   <v>       0.14285714      -0.14285714       0.14285714 </v>
   <v>       0.28571429      -0.14285714       0.14285714 </v>
   <v>       0.42857143      -0.14285714       0.14285714 </v>
   <v>       0.00000000       0.28571429       0.28571429 </v>
   <v>       0.14285714       0.28571429       0.28571429 </v>
   <v>       0.28571429       0.28571429       0.28571429 </v>
   <v>       0.42857143       0.28571429       0.28571429 </v>
   <v>       0.00000000       0.42857143       0.28571429 </v>
   <v>       0.14285714       0.42857143       0.28571429 </v>
   <v>       0.28571429       0.42857143       0.28571429 </v>
   <v>       0.42857143       0.42857143       0.28571429 </v>
   <v>       0.00000000      -0.42857143       0.28571429 </v>
   <v>       0.14285714      -0.42857143       0.28571429 </v>
   <v>       0.28571429      -0.42857143       0.28571429 </v>
   <v>       0.42857143      -0.42857143       0.28571429 </v>
   <v>       0.00000000      -0.28571429       0.28571429 </v>
   <v>       0.14285714      -0.28571429       0.28571429 </v>
   <v>       0.28571429      -0.28571429       0.28571429 </v>
   <v>       0.42857143      -0.28571429       0.28571429 </v>
   <v>       0.00000000       0.42857143       0.42857143 </v>
   <v>       0.14285714       0.42857143       0.42857143 </v>
   <v>       0.28571429       0.42857143       0.42857143 </v>
   <v>       0.42857143       0.42857143       0.42857143 </v>
   <v>       0.00000000      -0.42857143       0.42857143 </v>
   <v>       0.14285714      -0.42857143       0.42857143 </v>
   <v>       0.28571429      -0.42857143       0.42857143 </v>
   <v>       0.42857143      -0.42857143       0.42857143 </v>
  </varray>
  <varray name="weights" >
   <v>       0.00291545 </v>
   <v>       0.00583090 </v>
   <v>       0.00583090 </v>
   <v>       0.00583090 </v>
   <v>       0.01166181 </v>
   <v>       0.02332362 </v>
   <v>       0.02332362 </v>
   <v>       0.02332362 </v>
   <v>       0.01166181 </v>
   <v>       0.02332362 </v>
   <v>       0.02332362 </v>
   <v>       0.02332362 </v>
   <v>       0.01166181 </v>
   <v>       0.02332362 </v>
   <v>       0.02332362 </v>
   <v>       0.02332362 </v>
   <v>       0.00583090 </v>
   <v>       0.01166181 </v>
   <v>       0.01166181 </v>
   <v>       0.01166181 </v>
   <v>       0.01166181 </v>
   <v>       0.02332362 </v>
   <v>       0.02332362 </v>
   <v>       0.02332362 </v>
   <v>       0.01166181 </v>
   <v>       0.02332362 </v>
   <v>       0.02332362 </v>
   <v>       0.02332362 </v>
   <v>       0.01166181 </v>
   <v>       0.02332362 </v>
   <v>       0.02332362 </v>
   <v>       0.02332362 </v>
   <v>       0.01166181 </v>
   <v>       0.02332362 </v>
   <v>       0.02332362 </v>
   <v>       0.02332362 </v>
   <v>       0.00583090 </v>
   <v>       0.01166181 </v>
   <v>       0.01166181 </v>
   <v>       0.01166181 </v>
   <v>       0.00583090 </v>
   <v>       0.01166181 </v>
   <v>       0.01166181 </v>
   <v>       0.01166181 </v>
   <v>       0.01166181 </v>
   <v>       0.02332362 </v>
   <v>       0.02332362 </v>
   <v>       0.02332362 </v>
   <v>       0.01166181 </v>
   <v>       0.02332362 </v>
   <v>       0.02332362 </v>
   <v>       0.02332362 </v>
   <v>       0.00583090 </v>
   <v>       0.01166181 </v>
   <v>       0.01166181 </v>
   <v>       0.01166181 </v>
   <v>       0.00583090 </v>
   <v>       0.01166181 </v>
   <v>       0.01166181 </v>
   <v>       0.01166181 </v>
   <v>       0.00583090 </v>
   <v>       0.01166181 </v>
   <v>       0.01166181 </v>
   <v>       0.01166181 </v>
  </varray>
 </kpoints>
 <parameters>
  <separator name="general" >
   <i type="string" name="SYSTEM">unknown system</i>
   <i type="logical" name="LCOMPAT"> F  </i>
  </separator>
  <separator name="electronic" >
   <i type="string" name="PREC">a</i>
   <i name="ENMAX">    350.00000000</i>
   <i name="ENAUG">    322.06900000</i>
   <i name="EDIFF">      0.00010000</i>
   <i type="int" name="IALGO">    48</i>
   <i type="int" name="IWAVPR">    10</i>
   <i type="int" name="NBANDS">    21</i>
   <i name="NELECT">     32.00000000</i>
   <i type="int" name="TURBO">     0</i>
   <i type="int" name="IRESTART">     0</i>
   <i type="int" name="NREBOOT">     0</i>
   <i type="int" name="NMIN">     0</i>
   <i name="EREF">      0.00000000</i>
   <separator name="electronic smearing" >
    <i type="int" name="ISMEAR">     0</i>
    <i name="SIGMA">      0.20000000</i>
    <i name="KSPACING">      0.50000000</i>
    <i type="logical" name="KGAMMA"> T  </i>
   </separator>
   <separator name="electronic projectors" >
    <i type="logical" name="LREAL"> F  </i>
    <v name="ROPT">      0.00000000</v>
    <i type="int" name="LMAXPAW">  -100</i>
    <i type="int" name="LMAXMIX">     2</i>
    <i type="logical" name="NLSPLINE"> F  </i>
   </separator>
   <separator name="electronic startup" >
    <i type="int" name="ISTART">     0</i>
    <i type="int" name="ICHARG">     2</i>
    <i type="int" name="INIWAV">     1</i>
   </separator>
   <separator name="electronic spin" >
    <i type="int" name="ISPIN">     1</i>
    <i type="logical" name="LNONCOLLINEAR"> F  </i>
    <v name="MAGMOM">      1.00000000      1.00000000      1.00000000      1.00000000      1.00000000      1.00000000      1.00000000      1.00000000</v>
    <i name="NUPDOWN">     -1.00000000</i>
    <i type="logical" name="LSORBIT"> F  </i>
    <v name="SAXIS">      0.00000000      0.00000000      1.00000000</v>
    <i type="logical" name="LSPIRAL"> F  </i>
    <v name="QSPIRAL">      0.00000000      0.00000000      0.00000000</v>
    <i type="logical" name="LZEROZ"> F  </i>
   </separator>
   <separator name="electronic exchange-correlation" >
    <i type="logical" name="LASPH"> F  </i>
    <i type="logical" name="LMETAGGA"> F  </i>
   </separator>
   <separator name="electronic convergence" >
    <i type="int" name="NELM">    60</i>
    <i type="int" name="NELMDL">   -12</i>
    <i type="int" name="NELMIN">     2</i>
    <i name="ENINI">    350.00000000</i>
    <separator name="electronic convergence detail" >
     <i type="logical" name="LDIAG"> T  </i>
     <i type="logical" name="LSUBROT"> F  </i>
     <i name="WEIMIN">      0.00000000</i>
     <i name="EBREAK">      0.00000119</i>
     <i name="DEPER">      0.30000000</i>
     <i type="int" name="NRMM">     4</i>
     <i name="TIME">      0.40000000</i>
    </separator>
   </separator>
   <separator name="electronic mixer" >
    <i name="AMIX">      0.40000000</i>
    <i name="BMIX">      1.00000000</i>
    <i name="AMIN">      0.10000000</i>
    <i name="AMIX_MAG">      1.60000000</i>
    <i name="BMIX_MAG">      1.00000000</i>
    <separator name="electronic mixer details" >
     <i type="int" name="IMIX">     4</i>
     <i type="logical" name="MIXFIRST"> F  </i>
     <i type="int" name="MAXMIX">   -45</i>
     <i name="WC">    100.00000000</i>
     <i type="int" name="INIMIX">     1</i>
     <i type="int" name="MIXPRE">     1</i>
     <i type="int" name="MREMOVE">     5</i>
    </separator>
   </separator>
   <separator name="electronic dipolcorrection" >
    <i type="logical" name="LDIPOL"> F  </i>
    <i type="logical" name="LMONO"> F  </i>
    <i type="int" name="IDIPOL">     0</i>
    <i name="EPSILON">      1.00000000</i>
    <v name="DIPOL">   -100.00000000   -100.00000000   -100.00000000</v>
    <i name="EFIELD">      0.00000000</i>
   </separator>
  </separator>
  <separator name="grids" >
   <i type="int" name="NGX">    36</i>
   <i type="int" name="NGY">    36</i>
   <i type="int" name="NGZ">    36</i>
   <i type="int" name="NGXF">    72</i>
   <i type="int" name="NGYF">    72</i>
   <i type="int" name="NGZF">    72</i>
   <i type="logical" name="ADDGRID"> F  </i>
  </separator>
  <separator name="ionic" >
   <i type="int" name="NSW">     0</i>
   <i type="int" name="IBRION">    -1</i>
   <i type="int" name="ISIF">     2</i>
   <i name="PSTRESS">      0.00000000</i>
   <i name="EDIFFG">      0.00100000</i>
   <i type="int" name="NFREE">     0</i>
   <i name="POTIM">      0.50000000</i>
   <i name="SMASS">     -3.00000000</i>
   <i name="SCALEE">      1.00000000</i>
  </separator>
  <separator name="ionic md" >
   <i name="TEBEG">      0.00010000</i>
   <i name="TEEND">      0.00010000</i>
   <i type="int" name="NBLOCK">     1</i>
   <i type="int" name="KBLOCK">     1</i>
   <i type="int" name="NPACO">   256</i>
   <i name="APACO">     16.00000000</i>
  </separator>
  <separator name="symmetry" >
   <i type="int" name="ISYM">     2</i>
   <i name="SYMPREC">      0.00001000</i>
  </separator>
  <separator name="dos" >
   <i type="logical" name="LORBIT"> F  </i>
   <v name="RWIGS">     -1.00000000</v>
   <i type="int" name="NEDOS">  1000</i>
   <i name="EMIN">    -10.00000000</i>
   <i name="EMAX">     10.00000000</i>
   <i name="EFERMI">      0.00000000</i>
  </separator>
  <separator name="writing" >
   <i type="int" name="NWRITE">     2</i>
   <i type="logical" name="LWAVE"> T  </i>
   <i type="logical" name="LCHARG"> T  </i>
   <i type="logical" name="LPARD"> F  </i>
   <i type="logical" name="LVTOT"> F  </i>
   <i type="logical" name="LVHAR"> F  </i>
   <i type="logical" name="LELF"> F  </i>
   <i type="logical" name="LOPTICS"> T  </i>
   <v name="STM">      0.00000000      0.00000000      0.00000000      0.00000000      0.00000000      0.00000000      0.00000000</v>
  </separator>
  <separator name="performance" >
   <i type="int" name="NPAR">     1</i>
   <i type="int" name="NSIM">     4</i>
   <i type="int" name="NBLK">    -1</i>
   <i type="logical" name="LPLANE"> T  </i>
   <i type="logical" name="LSCALAPACK"> T  </i>
   <i type="logical" name="LSCAAWARE"> F  </i>
   <i type="logical" name="LSCALU"> F  </i>
   <i type="logical" name="LASYNC"> F  </i>
   <i type="logical" name="LORBITALREAL"> F  </i>
  </separator>
  <separator name="miscellaneous" >
   <i type="int" name="IDIOT">     3</i>
   <i type="logical" name="LMUSIC"> F  </i>
   <v name="POMASS">     28.08500000</v>
   <v name="DARWINR">      0.00000000</v>
   <v name="DARWINV">      1.00000000</v>
   <i type="logical" name="LCORR"> T  </i>
  </separator>
  <i type="logical" name="GGA_COMPAT"> T  </i>
  <i type="logical" name="LBERRY"> F  </i>
  <i type="int" name="ICORELEVEL">     0</i>
  <i type="logical" name="LDAU"> F  </i>
  <i type="int" name="I_CONSTRAINED_M">     0</i>
  <separator name="electronic exchange-correlation" >
   <i type="string" name="GGA">--</i>
   <i type="int" name="VOSKOWN">     0</i>
   <i type="logical" name="LHFCALC"> F  </i>
   <i type="string" name="PRECFOCK"></i>
   <i type="logical" name="LSYMGRAD"> F  </i>
   <i type="logical" name="LHFONE"> F  </i>
   <i type="logical" name="LRHFCALC"> F  </i>
   <i type="logical" name="LTHOMAS"> F  </i>
   <i type="logical" name="LMODELHF"> F  </i>
   <i name="ENCUT4O">     -1.00000000</i>
   <i type="int" name="EXXOEP">     0</i>
   <i type="int" name="FOURORBIT">     0</i>
   <i name="AEXX">      0.00000000</i>
   <i name="HFALPHA">      0.00000000</i>
   <i name="MCALPHA">      0.00000000</i>
   <i name="ALDAX">      1.00000000</i>
   <i name="AGGAX">      1.00000000</i>
   <i name="ALDAC">      1.00000000</i>
   <i name="AGGAC">      1.00000000</i>
   <i type="int" name="NKREDX">     1</i>
   <i type="int" name="NKREDY">     1</i>
   <i type="int" name="NKREDZ">     1</i>
   <i type="logical" name="SHIFTRED"> F  </i>
   <i type="logical" name="ODDONLY"> F  </i>
   <i type="logical" name="EVENONLY"> F  </i>
   <i type="int" name="LMAXFOCK">     0</i>
   <i type="int" name="NMAXFOCKAE">     0</i>
   <i type="logical" name="LFOCKAEDFT"> F  </i>
   <i name="HFSCREEN">      0.00000000</i>
   <i name="HFSCREENC">      0.00000000</i>
   <i type="int" name="NBANDSGWLOW">     0</i>
  </separator>
  <separator name="vdW DFT" >
   <i type="logical" name="LUSE_VDW"> F  </i>
   <i name="Zab_VDW">     -0.84910000</i>
   <i name="PARAM1">      0.12340000</i>
   <i name="PARAM2">      1.00000000</i>
   <i name="PARAM3">      0.00000000</i>
  </separator>
  <separator name="model GW" >
   <i type="int" name="MODEL_GW">     0</i>
   <i name="MODEL_EPS0">     12.24162890</i>
   <i name="MODEL_ALPHA">      1.00000000</i>
  </separator>
  <separator name="linear response parameters" >
   <i type="logical" name="LEPSILON"> F  </i>
   <i type="logical" name="LRPA"> F  </i>
   <i type="logical" name="LNABLA"> F  </i>
   <i type="logical" name="LVEL"> F  </i>
   <i type="int" name="KINTER">******</i>
   <i name="CSHIFT">      0.10000000</i>
   <i name="OMEGAMAX">     -1.00000000</i>
   <i name="DEG_THRESHOLD">      0.00200000</i>
  </separator>
  <separator name="orbital magnetization" >
   <i type="logical" name="NUCIND"> F  </i>
   <v name="MAGPOS">      0.00000000      0.00000000      0.00000000</v>
   <i type="logical" name="LNICSALL"> T  </i>
   <i type="logical" name="ORBITALMAG"> F  </i>
   <i type="logical" name="LMAGBLOCH"> F  </i>
   <i type="logical" name="LCHIMAG"> F  </i>
   <i type="logical" name="LGAUGE"> T  </i>
   <i type="int" name="MAGATOM">     0</i>
   <v name="MAGDIPOL">      0.00000000      0.00000000      0.00000000</v>
   <v name="AVECCONST">      0.00000000      0.00000000      0.00000000</v>
  </separator>
  <separator name="response functions" >
   <i type="logical" name="LADDER"> F  </i>
   <i type="logical" name="LFXC"> F  </i>
   <i type="logical" name="LHARTREE"> T  </i>
   <i type="int" name="IBSE">     0</i>
   <v type="int" name="KPOINT">    -1     0     0     0</v>
   <i type="logical" name="LTCTE"> F  </i>
   <i type="logical" name="LTETE"> F  </i>
   <i type="logical" name="LTRIPLET"> F  </i>
   <i type="logical" name="LFXCEPS"> F  </i>
   <i type="logical" name="LFXHEG"> F  </i>
   <i type="int" name="NATURALO">     0</i>
   <i type="logical" name="L2ORDER"> F  </i>
   <i type="logical" name="LUSEW"> F  </i>
   <i name="ENCUTGW">     -2.00000000</i>
   <i name="ENCUTGWSOFT">     -2.00000000</i>
   <i name="ENCUTLF">     -1.00000000</i>
   <i type="int" name="LMAXMP2">    -1</i>
   <i name="SCISSOR">      0.00000000</i>
   <i type="int" name="NOMEGA">     0</i>
   <i type="int" name="NOMEGAR">     0</i>
   <i type="int" name="NBANDSGW">    -1</i>
   <i type="int" name="NBANDSO">    -1</i>
   <i type="int" name="NBANDSV">    -1</i>
   <i type="int" name="NELM">     1</i>
   <i type="int" name="NELMHF">     1</i>
   <i type="int" name="DIM">     3</i>
   <i type="int" name="ANTIRES">     0</i>
   <i name="OMEGAMAX">    -30.00000000</i>
   <i name="OMEGAMIN">    -30.00000000</i>
   <i name="OMEGATL">   -200.00000000</i>
   <i type="int" name="OMEGAGRID">     0</i>
   <i name="CSHIFT">     -0.10000000</i>
   <i type="logical" name="SELFENERGY"> F  </i>
   <i type="logical" name="LSPECTRAL"> F  </i>
   <i type="logical" name="LSPECTRALGW"> F  </i>
   <i type="logical" name="LSINGLES"> F  </i>
   <i type="logical" name="LFERMIGW"> F  </i>
   <i type="logical" name="ODDONLYGW"> F  </i>
   <i type="logical" name="EVENONLYGW"> F  </i>
   <i type="int" name="NKREDLFX">     1</i>
   <i type="int" name="NKREDLFY">     1</i>
   <i type="int" name="NKREDLFZ">     1</i>
   <i type="int" name="MAXMEM">  1800</i>
   <i type="int" name="TELESCOPE">     0</i>
   <i type="int" name="TAUPAR">     1</i>
   <i type="int" name="OMEGAPAR">    -1</i>
   <i name="LAMBDA">      1.00000000</i>
  </separator>
  <separator name="External order field" >
   <i name="OFIELD_KAPPA">      0.00000000</i>
   <v name="OFIELD_K">      0.00000000      0.00000000      0.00000000</v>
   <i name="OFIELD_Q6_NEAR">      0.00000000</i>
   <i name="OFIELD_Q6_FAR">      0.00000000</i>
   <i name="OFIELD_A">      0.00000000</i>
  </separator>
 </parameters>
 <atominfo>
  <atoms>       8 </atoms>
  <types>       1 </types>
  <array name="atoms" >
   <dimension dim="1">ion</dimension>
   <field type="string">element</field>
   <field type="int">atomtype</field>
   <set>
    <rc><c>Si</c><c>   1</c></rc>
    <rc><c>Si</c><c>   1</c></rc>
    <rc><c>Si</c><c>   1</c></rc>
    <rc><c>Si</c><c>   1</c></rc>
    <rc><c>Si</c><c>   1</c></rc>
    <rc><c>Si</c><c>   1</c></rc>
    <rc><c>Si</c><c>   1</c></rc>
    <rc><c>Si</c><c>   1</c></rc>
   </set>
  </array>
  <array name="atomtypes" >
   <dimension dim="1">type</dimension>
   <field type="int">atomspertype</field>
   <field type="string">element</field>
   <field>mass</field>
   <field>valence</field>
   <field type="string">pseudopotential</field>
   <set>
    <rc><c>   8</c><c>Si</c><c>     28.08500000</c><c>      4.00000000</c><c> PAW_PBE Si 05Jan2001                   </c></rc>
   </set>
  </array>
 </atominfo>
 <structure name="initialpos" >
  <crystal>
   <varray name="basis" >
    <v>       5.46503124       0.00000000       0.00000000 </v>
    <v>       0.00000000       5.46503124       0.00000000 </v>
    <v>       0.00000000       0.00000000       5.46503124 </v>
   </varray>
   <i name="volume">    163.22171868 </i>
   <varray name="rec_basis" >
    <v>       0.18298157       0.00000000       0.00000000 </v>
    <v>       0.00000000       0.18298157       0.00000000 </v>
    <v>       0.00000000       0.00000000       0.18298157 </v>
   </varray>
  </crystal>
  <varray name="positions" >
   <v>       0.00000000       0.00000000       0.00000000 </v>
   <v>       0.00000000       0.50000000       0.50000000 </v>
   <v>       0.45000000       0.50000000       0.00000000 </v>
   <v>       0.50000000       0.00000000       0.50000000 </v>
   <v>       0.75000000       0.25000000       0.75000000 </v>
   <v>       0.25000000       0.25000000       0.25000000 </v>
   <v>       0.25000000       0.75000000       0.75000000 </v>
   <v>       0.75000000       0.75000000       0.25000000 </v>
  </varray>
 </structure>
 <calculation>
  <scstep>
   <time name="diag">    0.42    0.42</time>
   <time name="diis">    0.37    0.37</time>
   <time name="orth">    0.18    0.18</time>
   <time name="total">    1.03    1.04</time>
   <energy>
    <i name="alphaZ">     13.19945063 </i>
    <i name="ewald">   -906.87732482 </i>
    <i name="hartreedc">    -45.91134206 </i>
    <i name="XCdc">    -74.69017088 </i>
    <i name="pawpsdc">    263.82083246 </i>
    <i name="pawaedc">   -123.07410713 </i>
    <i name="eentropy">     -0.01727157 </i>
    <i name="bandstr">    212.39026679 </i>
    <i name="atom">    824.52501657 </i>
    <i name="e_fr_energy">    163.36535000 </i>
    <i name="e_wo_entrp">    163.38262157 </i>
    <i name="e_0_energy">    163.37398579 </i>
   </energy>
  </scstep>
  <scstep>
   <time name="diag">    0.42    0.42</time>
   <time name="diis">    0.36    0.36</time>
   <time name="orth">    0.18    0.18</time>
   <time name="total">    0.98    0.99</time>
   <energy>
    <i name="e_fr_energy">     14.25096237 </i>
    <i name="e_wo_entrp">     14.28755555 </i>
    <i name="e_0_energy">     14.26925896 </i>
   </energy>
  </scstep>
  <scstep>
   <time name="diag">    0.42    0.42</time>
   <time name="diis">    0.36    0.36</time>
   <time name="orth">    0.18    0.18</time>
   <time name="total">    0.98    1.00</time>
   <energy>
    <i name="e_fr_energy">    -23.07346816 </i>
    <i name="e_wo_entrp">    -23.03034203 </i>
    <i name="e_0_energy">    -23.05190509 </i>
   </energy>
  </scstep>
  <scstep>
   <time name="diag">    0.42    0.42</time>
   <time name="diis">    0.36    0.36</time>
   <time name="orth">    0.18    0.18</time>
   <time name="total">    0.98    1.00</time>
   <energy>
    <i name="e_fr_energy">    -34.93107495 </i>
    <i name="e_wo_entrp">    -34.90122713 </i>
    <i name="e_0_energy">    -34.91615104 </i>
   </energy>
  </scstep>
  <scstep>
   <time name="diag">    0.42    0.42</time>
   <time name="diis">    0.36    0.36</time>
   <time name="orth">    0.18    0.18</time>
   <time name="total">    0.98    1.00</time>
   <energy>
    <i name="e_fr_energy">    -40.20561851 </i>
    <i name="e_wo_entrp">    -40.19598842 </i>
    <i name="e_0_energy">    -40.20080347 </i>
   </energy>
  </scstep>
  <scstep>
   <time name="diag">    0.42    0.42</time>
   <time name="diis">    0.36    0.36</time>
   <time name="orth">    0.18    0.18</time>
   <time name="total">    0.98    1.00</time>
   <energy>
    <i name="e_fr_energy">    -42.18597037 </i>
    <i name="e_wo_entrp">    -42.18184714 </i>
    <i name="e_0_energy">    -42.18390876 </i>
   </energy>
  </scstep>
  <scstep>
   <time name="diag">    0.42    0.42</time>
   <time name="diis">    0.36    0.36</time>
   <time name="orth">    0.18    0.18</time>
   <time name="total">    0.98    1.00</time>
   <energy>
    <i name="e_fr_energy">    -42.97602238 </i>
    <i name="e_wo_entrp">    -42.97337466 </i>
    <i name="e_0_energy">    -42.97469852 </i>
   </energy>
  </scstep>
  <scstep>
   <time name="diag">    0.42    0.42</time>
   <time name="diis">    0.36    0.36</time>
   <time name="orth">    0.19    0.19</time>
   <time name="total">    0.99    1.01</time>
   <energy>
    <i name="e_fr_energy">    -43.31648516 </i>
    <i name="e_wo_entrp">    -43.31463630 </i>
    <i name="e_0_energy">    -43.31556073 </i>
   </energy>
  </scstep>
  <scstep>
   <time name="diag">    0.44    0.44</time>
   <time name="diis">    0.98    0.98</time>
   <time name="orth">    0.18    0.18</time>
   <time name="total">    1.63    1.65</time>
   <energy>
    <i name="e_fr_energy">    -43.60205609 </i>
    <i name="e_wo_entrp">    -43.60132432 </i>
    <i name="e_0_energy">    -43.60169021 </i>
   </energy>
  </scstep>
  <scstep>
   <time name="diag">    0.42    0.42</time>
   <time name="diis">    1.11    1.11</time>
   <time name="orth">    0.18    0.18</time>
   <time name="total">    1.73    1.75</time>
   <energy>
    <i name="e_fr_energy">    -43.61776292 </i>
    <i name="e_wo_entrp">    -43.61706744 </i>
    <i name="e_0_energy">    -43.61741518 </i>
   </energy>
  </scstep>
  <scstep>
   <time name="diag">    0.42    0.42</time>
   <time name="diis">    0.92    0.92</time>
   <time name="orth">    0.18    0.18</time>
   <time name="total">    1.54    1.56</time>
   <energy>
    <i name="e_fr_energy">    -43.61908760 </i>
    <i name="e_wo_entrp">    -43.61837968 </i>
    <i name="e_0_energy">    -43.61873364 </i>
   </energy>
  </scstep>
  <scstep>
   <time name="diag">    0.42    0.42</time>
   <time name="diis">    0.80    0.80</time>
   <time name="orth">    0.18    0.18</time>
   <time name="total">    1.49    1.52</time>
   <energy>
    <i name="e_fr_energy">    -43.61915842 </i>
    <i name="e_wo_entrp">    -43.61843308 </i>
    <i name="e_0_energy">    -43.61879575 </i>
   </energy>
  </scstep>
  <scstep>
   <time name="diag">    0.42    0.42</time>
   <time name="diis">    0.86    0.86</time>
   <time name="orth">    0.18    0.18</time>
   <time name="total">    1.58    1.60</time>
   <energy>
    <i name="e_fr_energy">    -43.12616125 </i>
    <i name="e_wo_entrp">    -43.12481516 </i>
    <i name="e_0_energy">    -43.12548821 </i>
   </energy>
  </scstep>
  <scstep>
   <time name="diag">    0.42    0.42</time>
   <time name="diis">    0.83    0.83</time>
   <time name="orth">    0.18    0.18</time>
   <time name="total">    1.54    1.56</time>
   <energy>
    <i name="e_fr_energy">    -42.90775652 </i>
    <i name="e_wo_entrp">    -42.90519069 </i>
    <i name="e_0_energy">    -42.90647361 </i>
   </energy>
  </scstep>
  <scstep>
   <time name="diag">    0.42    0.42</time>
   <time name="diis">    0.94    0.95</time>
   <time name="orth">    0.18    0.18</time>
   <time name="total">    1.65    1.68</time>
   <energy>
    <i name="e_fr_energy">    -42.91151827 </i>
    <i name="e_wo_entrp">    -42.90910629 </i>
    <i name="e_0_energy">    -42.91031228 </i>
   </energy>
  </scstep>
  <scstep>
   <time name="diag">    0.42    0.42</time>
   <time name="diis">    1.01    1.01</time>
   <time name="orth">    0.18    0.18</time>
   <time name="total">    1.72    1.74</time>
   <energy>
    <i name="e_fr_energy">    -42.91218159 </i>
    <i name="e_wo_entrp">    -42.90979904 </i>
    <i name="e_0_energy">    -42.91099031 </i>
   </energy>
  </scstep>
  <scstep>
   <time name="diag">    0.42    0.42</time>
   <time name="diis">    0.76    0.76</time>
   <time name="orth">    0.18    0.18</time>
   <time name="total">    1.47    1.72</time>
   <energy>
    <i name="e_fr_energy">    -42.91229428 </i>
    <i name="e_wo_entrp">    -42.90992567 </i>
    <i name="e_0_energy">    -42.91110998 </i>
   </energy>
  </scstep>
  <scstep>
   <time name="diag">    0.42    0.42</time>
   <time name="diis">    0.63    0.63</time>
   <time name="orth">    0.18    0.18</time>
   <time name="total">    1.27    1.29</time>
   <energy>
    <i name="alphaZ">     13.19945063 </i>
    <i name="ewald">   -906.87732482 </i>
    <i name="hartreedc">    -61.26759519 </i>
    <i name="XCdc">    -72.19297539 </i>
    <i name="pawpsdc">    295.62498073 </i>
    <i name="pawaedc">   -155.72818342 </i>
    <i name="eentropy">     -0.00236706 </i>
    <i name="bandstr">     19.80668146 </i>
    <i name="atom">    824.52501657 </i>
    <i name="e_fr_energy">    -42.91231648 </i>
    <i name="e_wo_entrp">    -42.90994942 </i>
    <i name="e_0_energy">    -42.91113295 </i>
   </energy>
  </scstep>
  <structure>
   <crystal>
    <varray name="basis" >
     <v>       5.46503124       0.00000000       0.00000000 </v>
     <v>       0.00000000       5.46503124       0.00000000 </v>
     <v>       0.00000000       0.00000000       5.46503124 </v>
    </varray>
    <i name="volume">    163.22171868 </i>
    <varray name="rec_basis" >
     <v>       0.18298157       0.00000000       0.00000000 </v>
     <v>       0.00000000       0.18298157       0.00000000 </v>
     <v>       0.00000000       0.00000000       0.18298157 </v>
    </varray>
   </crystal>
   <varray name="positions" >
    <v>       0.00000000       0.00000000       0.00000000 </v>
    <v>       0.00000000       0.50000000       0.50000000 </v>
    <v>       0.45000000       0.50000000       0.00000000 </v>
    <v>       0.50000000       0.00000000       0.50000000 </v>
    <v>       0.75000000       0.25000000       0.75000000 </v>
    <v>       0.25000000       0.25000000       0.25000000 </v>
    <v>       0.25000000       0.75000000       0.75000000 </v>
    <v>       0.75000000       0.75000000       0.25000000 </v>
   </varray>
  </structure>
  <varray name="forces" >
   <v>      -0.24262429       0.00000000       0.00000000 </v>
   <v>      -0.24262429       0.00000000       0.00000000 </v>
   <v>       3.41363039       0.00000000       0.00000000 </v>
   <v>       0.44349740       0.00000000       0.00000000 </v>
   <v>      -0.73886085       0.43704160       0.43704160 </v>
   <v>      -0.94707875      -0.84967664       0.84967664 </v>
   <v>      -0.94707875       0.84967664      -0.84967664 </v>
   <v>      -0.73886085      -0.43704160      -0.43704160 </v>
  </varray>
  <varray name="stress" >
   <v>      -0.33922566       0.00000000       0.00000000 </v>
   <v>       0.00000000      12.55020857     -25.92895230 </v>
   <v>       0.00000000     -25.92895230      12.55020857 </v>
  </varray>
  <energy>
   <i name="e_fr_energy">    -42.91231648 </i>
   <i name="e_wo_entrp">    -42.91113295 </i>
   <i name="e_0_energy">     -0.00236706 </i>
  </energy>
  <time name="totalsc">   24.68   25.63</time>
  <eigenvalues>
   <array>
    <dimension dim="1">band</dimension>
    <dimension dim="2">kpoint</dimension>
    <dimension dim="3">spin</dimension>
    <field>eigene</field>
    <field>occ</field>
    <set>
     <set comment="spin 1">
      <set comment="kpoint 1">
       <r>   -6.2350    1.0000 </r>
       <r>   -2.5472    1.0000 </r>
       <r>   -2.3672    1.0000 </r>
       <r>   -2.1338    1.0000 </r>
       <r>   -2.1296    1.0000 </r>
       <r>   -1.9396    1.0000 </r>
       <r>   -1.6955    1.0000 </r>
       <r>    2.6202    1.0000 </r>
       <r>    2.7989    1.0000 </r>
       <r>    2.8158    1.0000 </r>
       <r>    2.8243    1.0000 </r>
       <r>    2.8620    1.0000 </r>
       <r>    3.0133    1.0000 </r>
       <r>    5.3405    1.0000 </r>
       <r>    5.6046    0.9949 </r>
       <r>    5.8953    0.6951 </r>
       <r>    6.1297    0.1257 </r>
       <r>    6.1749    0.0713 </r>
       <r>    6.3913    0.0014 </r>
       <r>    6.4166    0.0007 </r>
       <r>    8.5786    0.0000 </r>
      </set>
      <set comment="kpoint 2">
       <r>   -6.1499    1.0000 </r>
       <r>   -3.2154    1.0000 </r>
       <r>   -2.3445    1.0000 </r>
       <r>   -2.1323    1.0000 </r>
       <r>   -2.1025    1.0000 </r>
       <r>   -1.9082    1.0000 </r>
       <r>   -0.8961    1.0000 </r>
       <r>    2.5303    1.0000 </r>
       <r>    2.5904    1.0000 </r>
       <r>    2.6311    1.0000 </r>
       <r>    2.6446    1.0000 </r>
       <r>    2.7695    1.0000 </r>
       <r>    2.9987    1.0000 </r>
       <r>    5.0694    1.0000 </r>
       <r>    5.1008    1.0000 </r>
       <r>    5.5645    0.9978 </r>
       <r>    6.1528    0.0951 </r>
       <r>    6.5684    0.0000 </r>
       <r>    6.7752    0.0000 </r>
       <r>    6.8142    0.0000 </r>
       <r>    6.8684    0.0000 </r>
      </set>
      <set comment="kpoint 3">
       <r>   -5.8986    1.0000 </r>
       <r>   -4.0674    1.0000 </r>
       <r>   -2.2914    1.0000 </r>
       <r>   -2.0725    1.0000 </r>
       <r>   -2.0385    1.0000 </r>
       <r>   -1.8332    1.0000 </r>
       <r>    0.2738    1.0000 </r>
       <r>    2.1750    1.0000 </r>
       <r>    2.1835    1.0000 </r>
       <r>    2.1859    1.0000 </r>
       <r>    2.2101    1.0000 </r>
       <r>    2.9614    1.0000 </r>
       <r>    3.2082    1.0000 </r>
       <r>    4.0157    1.0000 </r>
       <r>    4.5200    1.0000 </r>
       <r>    4.8956    1.0000 </r>
       <r>    6.2483    0.0235 </r>
       <r>    7.2160    0.0000 </r>
       <r>    7.6692    0.0000 </r>
       <r>    7.7864    0.0000 </r>
       <r>    7.9785    0.0000 </r>
      </set>
      <set comment="kpoint 4">
       <r>   -5.5158    1.0000 </r>
       <r>   -4.7632    1.0000 </r>
       <r>   -2.2464    1.0000 </r>
       <r>   -2.0193    1.0000 </r>
       <r>   -1.9834    1.0000 </r>
       <r>   -1.7677    1.0000 </r>
       <r>    1.5006    1.0000 </r>
       <r>    1.8710    1.0000 </r>
       <r>    1.8941    1.0000 </r>
       <r>    1.9328    1.0000 </r>
       <r>    1.9378    1.0000 </r>
       <r>    2.7925    1.0000 </r>
       <r>    3.2597    1.0000 </r>
       <r>    3.5327    1.0000 </r>
       <r>    4.0069    1.0000 </r>
       <r>    4.3096    1.0000 </r>
       <r>    6.4989    0.0001 </r>
       <r>    6.9704    0.0000 </r>
       <r>    8.3081    0.0000 </r>
       <r>    9.1367    0.0000 </r>
       <r>    9.2762    0.0000 </r>
      </set>
      <set comment="kpoint 5">
       <r>   -6.1475    1.0000 </r>
       <r>   -3.2317    1.0000 </r>
       <r>   -2.4111    1.0000 </r>
       <r>   -2.1320    1.0000 </r>
       <r>   -2.1058    1.0000 </r>
       <r>   -1.7555    1.0000 </r>
       <r>   -0.9670    1.0000 </r>
       <r>    2.3994    1.0000 </r>
       <r>    2.5316    1.0000 </r>
       <r>    2.6186    1.0000 </r>
       <r>    2.7068    1.0000 </r>
       <r>    2.9496    1.0000 </r>
       <r>    2.9834    1.0000 </r>
       <r>    4.9194    1.0000 </r>
       <r>    5.3275    1.0000 </r>
       <r>    5.5231    0.9992 </r>
       <r>    6.1584    0.0885 </r>
       <r>    6.4687    0.0002 </r>
       <r>    6.7096    0.0000 </r>
       <r>    6.8871    0.0000 </r>
       <r>    7.0701    0.0000 </r>
      </set>
      <set comment="kpoint 6">
       <r>   -6.0629    1.0000 </r>
       <r>   -3.2719    1.0000 </r>
       <r>   -3.0306    1.0000 </r>
       <r>   -2.2439    1.0000 </r>
       <r>   -1.9492    1.0000 </r>
       <r>   -1.1207    1.0000 </r>
       <r>   -0.8263    1.0000 </r>
       <r>    2.0306    1.0000 </r>
       <r>    2.4946    1.0000 </r>
       <r>    2.6153    1.0000 </r>
       <r>    2.7111    1.0000 </r>
       <r>    2.8593    1.0000 </r>
       <r>    3.0198    1.0000 </r>
       <r>    4.3500    1.0000 </r>
       <r>    4.9783    1.0000 </r>
       <r>    5.6226    0.9926 </r>
       <r>    6.4131    0.0008 </r>
       <r>    6.5632    0.0000 </r>
       <r>    6.8190    0.0000 </r>
       <r>    7.1474    0.0000 </r>
       <r>    7.2026    0.0000 </r>
      </set>
      <set comment="kpoint 7">
       <r>   -5.8135    1.0000 </r>
       <r>   -4.0046    1.0000 </r>
       <r>   -3.0126    1.0000 </r>
       <r>   -2.3531    1.0000 </r>
       <r>   -1.7426    1.0000 </r>
       <r>   -1.0999    1.0000 </r>
       <r>    0.1849    1.0000 </r>
       <r>    1.6136    1.0000 </r>
       <r>    2.1037    1.0000 </r>
       <r>    2.5049    1.0000 </r>
       <r>    2.7004    1.0000 </r>
       <r>    2.9106    1.0000 </r>
       <r>    3.0873    1.0000 </r>
       <r>    3.4515    1.0000 </r>
       <r>    4.3610    1.0000 </r>
       <r>    5.1515    1.0000 </r>
       <r>    6.7270    0.0000 </r>
       <r>    7.0860    0.0000 </r>
       <r>    7.6273    0.0000 </r>
       <r>    7.8376    0.0000 </r>
       <r>    8.1668    0.0000 </r>
      </set>
      <set comment="kpoint 8">
       <r>   -5.4344    1.0000 </r>
       <r>   -4.6877    1.0000 </r>
       <r>   -2.8614    1.0000 </r>
       <r>   -2.4744    1.0000 </r>
       <r>   -1.5116    1.0000 </r>
       <r>   -1.2350    1.0000 </r>
       <r>    1.2816    1.0000 </r>
       <r>    1.4821    1.0000 </r>
       <r>    1.6754    1.0000 </r>
       <r>    2.3224    1.0000 </r>
       <r>    2.4406    1.0000 </r>
       <r>    2.6354    1.0000 </r>
       <r>    3.1250    1.0000 </r>
       <r>    3.4738    1.0000 </r>
       <r>    3.8947    1.0000 </r>
       <r>    4.4247    1.0000 </r>
       <r>    6.9815    0.0000 </r>
       <r>    7.4399    0.0000 </r>
       <r>    8.3427    0.0000 </r>
       <r>    8.6348    0.0000 </r>
       <r>    9.2838    0.0000 </r>
      </set>
      <set comment="kpoint 9">
       <r>   -5.8860    1.0000 </r>
       <r>   -4.1077    1.0000 </r>
       <r>   -2.3435    1.0000 </r>
       <r>   -2.0724    1.0000 </r>
       <r>   -2.0416    1.0000 </r>
       <r>   -1.6901    1.0000 </r>
       <r>    0.2030    1.0000 </r>
       <r>    1.9844    1.0000 </r>
       <r>    2.1151    1.0000 </r>
       <r>    2.2042    1.0000 </r>
       <r>    2.3218    1.0000 </r>
       <r>    3.1689    1.0000 </r>
       <r>    3.1932    1.0000 </r>
       <r>    3.9511    1.0000 </r>
       <r>    4.7161    1.0000 </r>
       <r>    4.7925    1.0000 </r>
       <r>    6.2810    0.0133 </r>
       <r>    7.1785    0.0000 </r>
       <r>    7.4822    0.0000 </r>
       <r>    7.7090    0.0000 </r>
       <r>    8.0978    0.0000 </r>
      </set>
      <set comment="kpoint 10">
       <r>   -5.8033    1.0000 </r>
       <r>   -4.0470    1.0000 </r>
       <r>   -2.9791    1.0000 </r>
       <r>   -2.3804    1.0000 </r>
       <r>   -1.7211    1.0000 </r>
       <r>   -1.0384    1.0000 </r>
       <r>    0.1192    1.0000 </r>
       <r>    1.6073    1.0000 </r>
       <r>    2.0153    1.0000 </r>
       <r>    2.4678    1.0000 </r>
       <r>    2.7492    1.0000 </r>
       <r>    3.0029    1.0000 </r>
       <r>    3.1359    1.0000 </r>
       <r>    3.4254    1.0000 </r>
       <r>    4.3740    1.0000 </r>
       <r>    5.1759    1.0000 </r>
       <r>    6.7410    0.0000 </r>
       <r>    7.0345    0.0000 </r>
       <r>    7.7564    0.0000 </r>
       <r>    7.7799    0.0000 </r>
       <r>    8.1618    0.0000 </r>
      </set>
      <set comment="kpoint 11">
       <r>   -5.5601    1.0000 </r>
       <r>   -3.9387    1.0000 </r>
       <r>   -3.7032    1.0000 </r>
       <r>   -2.7137    1.0000 </r>
       <r>   -1.3835    1.0000 </r>
       <r>   -0.3143    1.0000 </r>
       <r>    0.0302    1.0000 </r>
       <r>    1.3362    1.0000 </r>
       <r>    2.0889    1.0000 </r>
       <r>    2.2426    1.0000 </r>
       <r>    2.5905    1.0000 </r>
       <r>    2.9970    1.0000 </r>
       <r>    3.1458    1.0000 </r>
       <r>    3.4162    1.0000 </r>
       <r>    3.7863    1.0000 </r>
       <r>    5.2875    1.0000 </r>
       <r>    6.9378    0.0000 </r>
       <r>    7.7363    0.0000 </r>
       <r>    8.0447    0.0000 </r>
       <r>    8.5779    0.0000 </r>
       <r>    8.6527    0.0000 </r>
      </set>
      <set comment="kpoint 12">
       <r>   -5.1929    1.0000 </r>
       <r>   -4.4674    1.0000 </r>
       <r>   -3.5796    1.0000 </r>
       <r>   -3.0498    1.0000 </r>
       <r>   -0.9960    1.0000 </r>
       <r>   -0.5754    1.0000 </r>
       <r>    0.7777    1.0000 </r>
       <r>    1.3751    1.0000 </r>
       <r>    1.6079    1.0000 </r>
       <r>    1.7166    1.0000 </r>
       <r>    2.5587    1.0000 </r>
       <r>    3.0257    1.0000 </r>
       <r>    3.2037    1.0000 </r>
       <r>    3.4692    1.0000 </r>
       <r>    3.9391    1.0000 </r>
       <r>    4.7557    1.0000 </r>
       <r>    7.6640    0.0000 </r>
       <r>    8.0744    0.0000 </r>
       <r>    8.5324    0.0000 </r>
       <r>    8.8984    0.0000 </r>
       <r>    9.0207    0.0000 </r>
      </set>
      <set comment="kpoint 13">
       <r>   -5.4545    1.0000 </r>
       <r>   -4.8562    1.0000 </r>
       <r>   -2.2821    1.0000 </r>
       <r>   -2.0212    1.0000 </r>
       <r>   -1.9863    1.0000 </r>
       <r>   -1.6384    1.0000 </r>
       <r>    1.3726    1.0000 </r>
       <r>    1.7170    1.0000 </r>
       <r>    1.8610    1.0000 </r>
       <r>    1.9243    1.0000 </r>
       <r>    2.0443    1.0000 </r>
       <r>    2.7429    1.0000 </r>
       <r>    3.5707    1.0000 </r>
       <r>    3.5959    1.0000 </r>
       <r>    4.0994    1.0000 </r>
       <r>    4.1377    1.0000 </r>
       <r>    6.5560    0.0000 </r>
       <r>    6.9736    0.0000 </r>
       <r>    8.1351    0.0000 </r>
       <r>    9.0503    0.0000 </r>
       <r>    9.1693    0.0000 </r>
      </set>
      <set comment="kpoint 14">
       <r>   -5.3755    1.0000 </r>
       <r>   -4.7830    1.0000 </r>
       <r>   -2.7762    1.0000 </r>
       <r>   -2.5585    1.0000 </r>
       <r>   -1.4642    1.0000 </r>
       <r>   -1.1938    1.0000 </r>
       <r>    1.1479    1.0000 </r>
       <r>    1.5351    1.0000 </r>
       <r>    1.5907    1.0000 </r>
       <r>    2.2891    1.0000 </r>
       <r>    2.4831    1.0000 </r>
       <r>    2.5856    1.0000 </r>
       <r>    3.2577    1.0000 </r>
       <r>    3.6597    1.0000 </r>
       <r>    3.8052    1.0000 </r>
       <r>    4.4190    1.0000 </r>
       <r>    7.0415    0.0000 </r>
       <r>    7.4354    0.0000 </r>
       <r>    8.2080    0.0000 </r>
       <r>    8.6621    0.0000 </r>
       <r>   10.4103    0.0000 </r>
      </set>
      <set comment="kpoint 15">
       <r>   -5.1446    1.0000 </r>
       <r>   -4.5713    1.0000 </r>
       <r>   -3.4773    1.0000 </r>
       <r>   -3.1045    1.0000 </r>
       <r>   -0.9778    1.0000 </r>
       <r>   -0.5440    1.0000 </r>
       <r>    0.7123    1.0000 </r>
       <r>    1.4015    1.0000 </r>
       <r>    1.4599    1.0000 </r>
       <r>    1.8471    1.0000 </r>
       <r>    2.5525    1.0000 </r>
       <r>    2.9593    1.0000 </r>
       <r>    3.3083    1.0000 </r>
       <r>    3.4715    1.0000 </r>
       <r>    3.9460    1.0000 </r>
       <r>    4.7640    1.0000 </r>
       <r>    7.6238    0.0000 </r>
       <r>    8.1317    0.0000 </r>
       <r>    8.5364    0.0000 </r>
       <r>    8.9302    0.0000 </r>
       <r>    9.0557    0.0000 </r>
      </set>
      <set comment="kpoint 16">
       <r>   -4.8051    1.0000 </r>
       <r>   -4.2803    1.0000 </r>
       <r>   -4.0553    1.0000 </r>
       <r>   -3.5957    1.0000 </r>
       <r>   -0.4661    1.0000 </r>
       <r>   -0.0424    1.0000 </r>
       <r>    0.3208    1.0000 </r>
       <r>    0.8690    1.0000 </r>
       <r>    1.5634    1.0000 </r>
       <r>    1.9356    1.0000 </r>
       <r>    2.0435    1.0000 </r>
       <r>    2.4589    1.0000 </r>
       <r>    3.9168    1.0000 </r>
       <r>    4.0738    1.0000 </r>
       <r>    4.2191    1.0000 </r>
       <r>    4.7375    1.0000 </r>
       <r>    7.6316    0.0000 </r>
       <r>    8.2891    0.0000 </r>
       <r>    8.3453    0.0000 </r>
       <r>    8.4810    0.0000 </r>
       <r>    9.6680    0.0000 </r>
      </set>
      <set comment="kpoint 17">
       <r>   -6.0634    1.0000 </r>
       <r>   -3.2201    1.0000 </r>
       <r>   -3.0553    1.0000 </r>
       <r>   -2.4003    1.0000 </r>
       <r>   -1.7089    1.0000 </r>
       <r>   -1.1493    1.0000 </r>
       <r>   -0.9693    1.0000 </r>
       <r>    2.0719    1.0000 </r>
       <r>    2.6336    1.0000 </r>
       <r>    2.6485    1.0000 </r>
       <r>    2.6927    1.0000 </r>
       <r>    2.8280    1.0000 </r>
       <r>    2.9618    1.0000 </r>
       <r>    4.6410    1.0000 </r>
       <r>    4.9834    1.0000 </r>
       <r>    5.2654    1.0000 </r>
       <r>    6.3251    0.0057 </r>
       <r>    6.5114    0.0001 </r>
       <r>    6.7503    0.0000 </r>
       <r>    7.0114    0.0000 </r>
       <r>    8.5499    0.0000 </r>
      </set>
      <set comment="kpoint 18">
       <r>   -5.9796    1.0000 </r>
       <r>   -3.2166    1.0000 </r>
       <r>   -3.1834    1.0000 </r>
       <r>   -2.8428    1.0000 </r>
       <r>   -1.1900    1.0000 </r>
       <r>   -1.1743    1.0000 </r>
       <r>   -0.8166    1.0000 </r>
       <r>    2.1238    1.0000 </r>
       <r>    2.1822    1.0000 </r>
       <r>    2.3637    1.0000 </r>
       <r>    2.8515    1.0000 </r>
       <r>    3.0237    1.0000 </r>
       <r>    3.1354    1.0000 </r>
       <r>    3.8757    1.0000 </r>
       <r>    5.0442    1.0000 </r>
       <r>    5.4225    0.9999 </r>
       <r>    6.3924    0.0013 </r>
       <r>    6.4658    0.0002 </r>
       <r>    6.7327    0.0000 </r>
       <r>    7.6829    0.0000 </r>
       <r>    8.0433    0.0000 </r>
      </set>
      <set comment="kpoint 19">
       <r>   -5.7328    1.0000 </r>
       <r>   -3.9551    1.0000 </r>
       <r>   -3.0931    1.0000 </r>
       <r>   -2.8049    1.0000 </r>
       <r>   -1.2467    1.0000 </r>
       <r>   -1.2073    1.0000 </r>
       <r>    0.0744    1.0000 </r>
       <r>    1.8132    1.0000 </r>
       <r>    1.9139    1.0000 </r>
       <r>    2.5584    1.0000 </r>
       <r>    2.9221    1.0000 </r>
       <r>    2.9582    1.0000 </r>
       <r>    3.0532    1.0000 </r>
       <r>    3.1062    1.0000 </r>
       <r>    4.5618    1.0000 </r>
       <r>    5.0923    1.0000 </r>
       <r>    6.6804    0.0000 </r>
       <r>    7.0705    0.0000 </r>
       <r>    7.3519    0.0000 </r>
       <r>    7.9985    0.0000 </r>
       <r>    8.4809    0.0000 </r>
      </set>
      <set comment="kpoint 20">
       <r>   -5.3586    1.0000 </r>
       <r>   -4.6211    1.0000 </r>
       <r>   -3.0107    1.0000 </r>
       <r>   -2.6978    1.0000 </r>
       <r>   -1.3241    1.0000 </r>
       <r>   -1.3237    1.0000 </r>
       <r>    1.0203    1.0000 </r>
       <r>    1.6536    1.0000 </r>
       <r>    1.8149    1.0000 </r>
       <r>    1.9628    1.0000 </r>
       <r>    2.7152    1.0000 </r>
       <r>    2.7692    1.0000 </r>
       <r>    3.3713    1.0000 </r>
       <r>    3.3715    1.0000 </r>
       <r>    4.0933    1.0000 </r>
       <r>    4.2535    1.0000 </r>
       <r>    7.0415    0.0000 </r>
       <r>    7.6178    0.0000 </r>
       <r>    8.3238    0.0000 </r>
       <r>    8.5435    0.0000 </r>
       <r>    9.1147    0.0000 </r>
      </set>
      <set comment="kpoint 21">
       <r>   -5.8068    1.0000 </r>
       <r>   -4.0222    1.0000 </r>
       <r>   -2.9439    1.0000 </r>
       <r>   -2.5257    1.0000 </r>
       <r>   -1.4955    1.0000 </r>
       <r>   -1.1853    1.0000 </r>
       <r>    0.0240    1.0000 </r>
       <r>    1.6471    1.0000 </r>
       <r>    2.1129    1.0000 </r>
       <r>    2.5441    1.0000 </r>
       <r>    2.7135    1.0000 </r>
       <r>    2.8776    1.0000 </r>
       <r>    3.2370    1.0000 </r>
       <r>    3.6711    1.0000 </r>
       <r>    4.3501    1.0000 </r>
       <r>    4.8678    1.0000 </r>
       <r>    6.7346    0.0000 </r>
       <r>    6.9184    0.0000 </r>
       <r>    7.5409    0.0000 </r>
       <r>    7.9272    0.0000 </r>
       <r>    8.7455    0.0000 </r>
      </set>
      <set comment="kpoint 22">
       <r>   -5.7254    1.0000 </r>
       <r>   -3.9651    1.0000 </r>
       <r>   -3.0898    1.0000 </r>
       <r>   -2.8544    1.0000 </r>
       <r>   -1.2809    1.0000 </r>
       <r>   -0.9866    1.0000 </r>
       <r>   -0.1015    1.0000 </r>
       <r>    1.7617    1.0000 </r>
       <r>    1.8974    1.0000 </r>
       <r>    2.6204    1.0000 </r>
       <r>    2.7997    1.0000 </r>
       <r>    2.9833    1.0000 </r>
       <r>    3.0603    1.0000 </r>
       <r>    3.3465    1.0000 </r>
       <r>    4.6566    1.0000 </r>
       <r>    4.9207    1.0000 </r>
       <r>    6.7656    0.0000 </r>
       <r>    6.9912    0.0000 </r>
       <r>    7.2439    0.0000 </r>
       <r>    7.9904    0.0000 </r>
       <r>    8.4258    0.0000 </r>
      </set>
      <set comment="kpoint 23">
       <r>   -5.4861    1.0000 </r>
       <r>   -3.8806    1.0000 </r>
       <r>   -3.6847    1.0000 </r>
       <r>   -2.9527    1.0000 </r>
       <r>   -1.3135    1.0000 </r>
       <r>   -0.5419    1.0000 </r>
       <r>   -0.1881    1.0000 </r>
       <r>    1.6910    1.0000 </r>
       <r>    1.9562    1.0000 </r>
       <r>    2.3260    1.0000 </r>
       <r>    2.5507    1.0000 </r>
       <r>    3.1133    1.0000 </r>
       <r>    3.2695    1.0000 </r>
       <r>    3.4834    1.0000 </r>
       <r>    4.1834    1.0000 </r>
       <r>    5.1944    1.0000 </r>
       <r>    6.9959    0.0000 </r>
       <r>    7.2778    0.0000 </r>
       <r>    7.5473    0.0000 </r>
       <r>    7.9663    0.0000 </r>
       <r>    8.8379    0.0000 </r>
      </set>
      <set comment="kpoint 24">
       <r>   -5.1269    1.0000 </r>
       <r>   -4.4162    1.0000 </r>
       <r>   -3.5586    1.0000 </r>
       <r>   -3.0974    1.0000 </r>
       <r>   -1.2177    1.0000 </r>
       <r>   -0.8658    1.0000 </r>
       <r>    0.4510    1.0000 </r>
       <r>    1.2259    1.0000 </r>
       <r>    1.7927    1.0000 </r>
       <r>    2.1790    1.0000 </r>
       <r>    2.9059    1.0000 </r>
       <r>    3.2759    1.0000 </r>
       <r>    3.4243    1.0000 </r>
       <r>    3.5610    1.0000 </r>
       <r>    3.9234    1.0000 </r>
       <r>    4.6721    1.0000 </r>
       <r>    7.6043    0.0000 </r>
       <r>    7.7889    0.0000 </r>
       <r>    8.2216    0.0000 </r>
       <r>    8.6644    0.0000 </r>
       <r>   10.3392    0.0000 </r>
      </set>
      <set comment="kpoint 25">
       <r>   -5.3826    1.0000 </r>
       <r>   -4.7662    1.0000 </r>
       <r>   -2.7273    1.0000 </r>
       <r>   -2.6463    1.0000 </r>
       <r>   -1.3966    1.0000 </r>
       <r>   -1.2390    1.0000 </r>
       <r>    1.0681    1.0000 </r>
       <r>    1.4898    1.0000 </r>
       <r>    1.6710    1.0000 </r>
       <r>    2.3907    1.0000 </r>
       <r>    2.5114    1.0000 </r>
       <r>    2.5979    1.0000 </r>
       <r>    3.2733    1.0000 </r>
       <r>    3.7066    1.0000 </r>
       <r>    3.8640    1.0000 </r>
       <r>    4.1858    1.0000 </r>
       <r>    7.0121    0.0000 </r>
       <r>    7.4972    0.0000 </r>
       <r>    8.1983    0.0000 </r>
       <r>    9.3224    0.0000 </r>
       <r>    9.4287    0.0000 </r>
      </set>
      <set comment="kpoint 26">
       <r>   -5.3056    1.0000 </r>
       <r>   -4.6947    1.0000 </r>
       <r>   -2.9805    1.0000 </r>
       <r>   -2.7962    1.0000 </r>
       <r>   -1.3631    1.0000 </r>
       <r>   -1.0493    1.0000 </r>
       <r>    0.8182    1.0000 </r>
       <r>    1.5837    1.0000 </r>
       <r>    1.6558    1.0000 </r>
       <r>    2.1123    1.0000 </r>
       <r>    2.6369    1.0000 </r>
       <r>    2.8126    1.0000 </r>
       <r>    3.4163    1.0000 </r>
       <r>    3.6970    1.0000 </r>
       <r>    3.9406    1.0000 </r>
       <r>    4.2558    1.0000 </r>
       <r>    7.1887    0.0000 </r>
       <r>    7.6394    0.0000 </r>
       <r>    8.1764    0.0000 </r>
       <r>    8.4488    0.0000 </r>
       <r>   10.3258    0.0000 </r>
      </set>
      <set comment="kpoint 27">
       <r>   -5.0815    1.0000 </r>
       <r>   -4.4893    1.0000 </r>
       <r>   -3.5241    1.0000 </r>
       <r>   -3.1510    1.0000 </r>
       <r>   -1.1978    1.0000 </r>
       <r>   -0.6640    1.0000 </r>
       <r>    0.2854    1.0000 </r>
       <r>    1.2132    1.0000 </r>
       <r>    1.7794    1.0000 </r>
       <r>    2.0135    1.0000 </r>
       <r>    3.0240    1.0000 </r>
       <r>    3.2023    1.0000 </r>
       <r>    3.5048    1.0000 </r>
       <r>    3.6470    1.0000 </r>
       <r>    3.8762    1.0000 </r>
       <r>    4.7332    1.0000 </r>
       <r>    7.6173    0.0000 </r>
       <r>    7.9256    0.0000 </r>
       <r>    8.1242    0.0000 </r>
       <r>    8.4896    0.0000 </r>
       <r>    9.0300    0.0000 </r>
      </set>
      <set comment="kpoint 28">
       <r>   -4.7553    1.0000 </r>
       <r>   -4.2186    1.0000 </r>
       <r>   -4.0319    1.0000 </r>
       <r>   -3.5606    1.0000 </r>
       <r>   -0.8808    1.0000 </r>
       <r>   -0.3818    1.0000 </r>
       <r>   -0.0674    1.0000 </r>
       <r>    0.5375    1.0000 </r>
       <r>    2.0631    1.0000 </r>
       <r>    2.3499    1.0000 </r>
       <r>    2.6239    1.0000 </r>
       <r>    2.9594    1.0000 </r>
       <r>    3.9429    1.0000 </r>
       <r>    4.1009    1.0000 </r>
       <r>    4.2097    1.0000 </r>
       <r>    4.7492    1.0000 </r>
       <r>    7.6786    0.0000 </r>
       <r>    8.1560    0.0000 </r>
       <r>    8.3498    0.0000 </r>
       <r>    8.4477    0.0000 </r>
       <r>    8.7882    0.0000 </r>
      </set>
      <set comment="kpoint 29">
       <r>   -5.3633    1.0000 </r>
       <r>   -4.7956    1.0000 </r>
       <r>   -2.8722    1.0000 </r>
       <r>   -2.4194    1.0000 </r>
       <r>   -1.6457    1.0000 </r>
       <r>   -1.0386    1.0000 </r>
       <r>    1.2982    1.0000 </r>
       <r>    1.3675    1.0000 </r>
       <r>    1.7602    1.0000 </r>
       <r>    2.1733    1.0000 </r>
       <r>    2.3129    1.0000 </r>
       <r>    2.6871    1.0000 </r>
       <r>    3.2145    1.0000 </r>
       <r>    3.5510    1.0000 </r>
       <r>    3.7914    1.0000 </r>
       <r>    4.5955    1.0000 </r>
       <r>    7.0907    0.0000 </r>
       <r>    7.4164    0.0000 </r>
       <r>    8.4265    0.0000 </r>
       <r>    8.5107    0.0000 </r>
       <r>    9.4132    0.0000 </r>
      </set>
      <set comment="kpoint 30">
       <r>   -5.2853    1.0000 </r>
       <r>   -4.7259    1.0000 </r>
       <r>   -2.9792    1.0000 </r>
       <r>   -2.8058    1.0000 </r>
       <r>   -1.3465    1.0000 </r>
       <r>   -1.0251    1.0000 </r>
       <r>    1.0443    1.0000 </r>
       <r>    1.4629    1.0000 </r>
       <r>    1.6559    1.0000 </r>
       <r>    1.8658    1.0000 </r>
       <r>    2.6609    1.0000 </r>
       <r>    2.8547    1.0000 </r>
       <r>    3.1623    1.0000 </r>
       <r>    3.7017    1.0000 </r>
       <r>    4.1237    1.0000 </r>
       <r>    4.3748    1.0000 </r>
       <r>    7.2131    0.0000 </r>
       <r>    7.6577    0.0000 </r>
       <r>    8.3449    0.0000 </r>
       <r>    8.6064    0.0000 </r>
       <r>    9.0471    0.0000 </r>
      </set>
      <set comment="kpoint 31">
       <r>   -5.0576    1.0000 </r>
       <r>   -4.5264    1.0000 </r>
       <r>   -3.4411    1.0000 </r>
       <r>   -3.2696    1.0000 </r>
       <r>   -0.9543    1.0000 </r>
       <r>   -0.8409    1.0000 </r>
       <r>    0.4918    1.0000 </r>
       <r>    1.0218    1.0000 </r>
       <r>    1.6762    1.0000 </r>
       <r>    2.0048    1.0000 </r>
       <r>    2.7581    1.0000 </r>
       <r>    3.3155    1.0000 </r>
       <r>    3.4869    1.0000 </r>
       <r>    3.7930    1.0000 </r>
       <r>    4.0625    1.0000 </r>
       <r>    4.6365    1.0000 </r>
       <r>    7.6690    0.0000 </r>
       <r>    7.8786    0.0000 </r>
       <r>    8.2818    0.0000 </r>
       <r>    8.7338    0.0000 </r>
       <r>    8.9002    0.0000 </r>
      </set>
      <set comment="kpoint 32">
       <r>   -4.7259    1.0000 </r>
       <r>   -4.2512    1.0000 </r>
       <r>   -4.0000    1.0000 </r>
       <r>   -3.6340    1.0000 </r>
       <r>   -0.6537    1.0000 </r>
       <r>   -0.3996    1.0000 </r>
       <r>   -0.0426    1.0000 </r>
       <r>    0.3807    1.0000 </r>
       <r>    1.8851    1.0000 </r>
       <r>    2.3590    1.0000 </r>
       <r>    2.5148    1.0000 </r>
       <r>    3.0888    1.0000 </r>
       <r>    3.9876    1.0000 </r>
       <r>    4.1337    1.0000 </r>
       <r>    4.2936    1.0000 </r>
       <r>    4.7108    1.0000 </r>
       <r>    7.6986    0.0000 </r>
       <r>    8.1891    0.0000 </r>
       <r>    8.2362    0.0000 </r>
       <r>    8.4362    0.0000 </r>
       <r>    9.1983    0.0000 </r>
      </set>
      <set comment="kpoint 33">
       <r>   -5.7950    1.0000 </r>
       <r>   -4.0681    1.0000 </r>
       <r>   -3.0387    1.0000 </r>
       <r>   -2.2019    1.0000 </r>
       <r>   -1.9057    1.0000 </r>
       <r>   -0.9321    1.0000 </r>
       <r>    0.2114    1.0000 </r>
       <r>    1.4638    1.0000 </r>
       <r>    2.1170    1.0000 </r>
       <r>    2.3842    1.0000 </r>
       <r>    2.8330    1.0000 </r>
       <r>    2.9557    1.0000 </r>
       <r>    3.0635    1.0000 </r>
       <r>    3.2273    1.0000 </r>
       <r>    4.4149    1.0000 </r>
       <r>    5.3923    1.0000 </r>
       <r>    6.8044    0.0000 </r>
       <r>    7.2527    0.0000 </r>
       <r>    7.5212    0.0000 </r>
       <r>    7.8976    0.0000 </r>
       <r>    8.0545    0.0000 </r>
      </set>
      <set comment="kpoint 34">
       <r>   -5.7129    1.0000 </r>
       <r>   -4.0146    1.0000 </r>
       <r>   -3.0679    1.0000 </r>
       <r>   -2.8873    1.0000 </r>
       <r>   -1.2518    1.0000 </r>
       <r>   -0.9269    1.0000 </r>
       <r>    0.0910    1.0000 </r>
       <r>    1.6176    1.0000 </r>
       <r>    1.7635    1.0000 </r>
       <r>    2.4452    1.0000 </r>
       <r>    2.6982    1.0000 </r>
       <r>    2.9595    1.0000 </r>
       <r>    3.0926    1.0000 </r>
       <r>    3.3389    1.0000 </r>
       <r>    4.7135    1.0000 </r>
       <r>    5.1876    1.0000 </r>
       <r>    6.8122    0.0000 </r>
       <r>    7.1859    0.0000 </r>
       <r>    7.3720    0.0000 </r>
       <r>    8.1303    0.0000 </r>
       <r>    8.3453    0.0000 </r>
      </set>
      <set comment="kpoint 35">
       <r>   -5.4716    1.0000 </r>
       <r>   -3.9137    1.0000 </r>
       <r>   -3.6557    1.0000 </r>
       <r>   -3.0782    1.0000 </r>
       <r>   -1.0527    1.0000 </r>
       <r>   -0.4906    1.0000 </r>
       <r>   -0.1506    1.0000 </r>
       <r>    1.5273    1.0000 </r>
       <r>    1.7884    1.0000 </r>
       <r>    2.1383    1.0000 </r>
       <r>    2.2957    1.0000 </r>
       <r>    3.2827    1.0000 </r>
       <r>    3.4420    1.0000 </r>
       <r>    3.4994    1.0000 </r>
       <r>    4.3865    1.0000 </r>
       <r>    5.1462    1.0000 </r>
       <r>    7.0373    0.0000 </r>
       <r>    7.4480    0.0000 </r>
       <r>    7.6314    0.0000 </r>
       <r>    8.0719    0.0000 </r>
       <r>    8.9907    0.0000 </r>
      </set>
      <set comment="kpoint 36">
       <r>   -5.1086    1.0000 </r>
       <r>   -4.3897    1.0000 </r>
       <r>   -3.6309    1.0000 </r>
       <r>   -3.1988    1.0000 </r>
       <r>   -0.9541    1.0000 </r>
       <r>   -0.6595    1.0000 </r>
       <r>    0.3206    1.0000 </r>
       <r>    1.0939    1.0000 </r>
       <r>    1.5689    1.0000 </r>
       <r>    1.9171    1.0000 </r>
       <r>    2.9033    1.0000 </r>
       <r>    3.3828    1.0000 </r>
       <r>    3.5400    1.0000 </r>
       <r>    3.6042    1.0000 </r>
       <r>    4.0423    1.0000 </r>
       <r>    4.7032    1.0000 </r>
       <r>    7.7478    0.0000 </r>
       <r>    7.9185    0.0000 </r>
       <r>    8.2774    0.0000 </r>
       <r>    8.6183    0.0000 </r>
       <r>    9.0517    0.0000 </r>
      </set>
      <set comment="kpoint 37">
       <r>   -6.0577    1.0000 </r>
       <r>   -3.3296    1.0000 </r>
       <r>   -3.0286    1.0000 </r>
       <r>   -2.1340    1.0000 </r>
       <r>   -2.0463    1.0000 </r>
       <r>   -0.9610    1.0000 </r>
       <r>   -0.8871    1.0000 </r>
       <r>    1.8639    1.0000 </r>
       <r>    2.5794    1.0000 </r>
       <r>    2.5826    1.0000 </r>
       <r>    2.7381    1.0000 </r>
       <r>    2.8153    1.0000 </r>
       <r>    3.0720    1.0000 </r>
       <r>    4.1303    1.0000 </r>
       <r>    5.0354    1.0000 </r>
       <r>    5.8683    0.7586 </r>
       <r>    6.5986    0.0000 </r>
       <r>    6.6743    0.0000 </r>
       <r>    6.7131    0.0000 </r>
       <r>    7.0357    0.0000 </r>
       <r>    7.3269    0.0000 </r>
      </set>
      <set comment="kpoint 38">
       <r>   -5.9737    1.0000 </r>
       <r>   -3.3484    1.0000 </r>
       <r>   -2.9870    1.0000 </r>
       <r>   -2.9786    1.0000 </r>
       <r>   -1.2480    1.0000 </r>
       <r>   -0.9151    1.0000 </r>
       <r>   -0.8180    1.0000 </r>
       <r>    1.9545    1.0000 </r>
       <r>    2.1430    1.0000 </r>
       <r>    2.1455    1.0000 </r>
       <r>    3.0399    1.0000 </r>
       <r>    3.0430    1.0000 </r>
       <r>    3.1813    1.0000 </r>
       <r>    3.6162    1.0000 </r>
       <r>    5.2069    1.0000 </r>
       <r>    5.5579    0.9981 </r>
       <r>    6.4813    0.0001 </r>
       <r>    6.6728    0.0000 </r>
       <r>    6.7645    0.0000 </r>
       <r>    7.6953    0.0000 </r>
       <r>    7.8186    0.0000 </r>
      </set>
      <set comment="kpoint 39">
       <r>   -5.7259    1.0000 </r>
       <r>   -3.9384    1.0000 </r>
       <r>   -3.1576    1.0000 </r>
       <r>   -2.8834    1.0000 </r>
       <r>   -1.1293    1.0000 </r>
       <r>   -1.0008    1.0000 </r>
       <r>    0.0277    1.0000 </r>
       <r>    1.6601    1.0000 </r>
       <r>    1.7596    1.0000 </r>
       <r>    2.3430    1.0000 </r>
       <r>    2.8182    1.0000 </r>
       <r>    3.0105    1.0000 </r>
       <r>    3.0650    1.0000 </r>
       <r>    3.3501    1.0000 </r>
       <r>    4.8357    1.0000 </r>
       <r>    4.9582    1.0000 </r>
       <r>    6.9481    0.0000 </r>
       <r>    7.1056    0.0000 </r>
       <r>    7.2930    0.0000 </r>
       <r>    7.9724    0.0000 </r>
       <r>    8.3323    0.0000 </r>
      </set>
      <set comment="kpoint 40">
       <r>   -5.3501    1.0000 </r>
       <r>   -4.6084    1.0000 </r>
       <r>   -3.1006    1.0000 </r>
       <r>   -2.7866    1.0000 </r>
       <r>   -1.1650    1.0000 </r>
       <r>   -1.0970    1.0000 </r>
       <r>    0.9453    1.0000 </r>
       <r>    1.4596    1.0000 </r>
       <r>    1.6053    1.0000 </r>
       <r>    1.8538    1.0000 </r>
       <r>    2.8075    1.0000 </r>
       <r>    2.9093    1.0000 </r>
       <r>    3.1264    1.0000 </r>
       <r>    3.6526    1.0000 </r>
       <r>    4.0139    1.0000 </r>
       <r>    4.4157    1.0000 </r>
       <r>    7.2664    0.0000 </r>
       <r>    7.7364    0.0000 </r>
       <r>    8.3386    0.0000 </r>
       <r>    8.5361    0.0000 </r>
       <r>    9.1017    0.0000 </r>
      </set>
      <set comment="kpoint 41">
       <r>   -5.5598    1.0000 </r>
       <r>   -3.9019    1.0000 </r>
       <r>   -3.6800    1.0000 </r>
       <r>   -2.8650    1.0000 </r>
       <r>   -1.1396    1.0000 </r>
       <r>   -0.3204    1.0000 </r>
       <r>   -0.2811    1.0000 </r>
       <r>    1.3494    1.0000 </r>
       <r>    2.1846    1.0000 </r>
       <r>    2.3498    1.0000 </r>
       <r>    2.7780    1.0000 </r>
       <r>    3.0142    1.0000 </r>
       <r>    3.1893    1.0000 </r>
       <r>    3.4438    1.0000 </r>
       <r>    3.7086    1.0000 </r>
       <r>    4.9968    1.0000 </r>
       <r>    6.7863    0.0000 </r>
       <r>    7.7812    0.0000 </r>
       <r>    7.9230    0.0000 </r>
       <r>    8.4541    0.0000 </r>
       <r>    8.6363    0.0000 </r>
      </set>
      <set comment="kpoint 42">
       <r>   -5.4817    1.0000 </r>
       <r>   -3.8615    1.0000 </r>
       <r>   -3.6409    1.0000 </r>
       <r>   -3.1096    1.0000 </r>
       <r>   -1.0167    1.0000 </r>
       <r>   -0.4986    1.0000 </r>
       <r>   -0.4829    1.0000 </r>
       <r>    1.6174    1.0000 </r>
       <r>    2.1092    1.0000 </r>
       <r>    2.3440    1.0000 </r>
       <r>    2.4099    1.0000 </r>
       <r>    3.1952    1.0000 </r>
       <r>    3.2997    1.0000 </r>
       <r>    3.5671    1.0000 </r>
       <r>    4.3495    1.0000 </r>
       <r>    4.8878    1.0000 </r>
       <r>    6.8747    0.0000 </r>
       <r>    7.3124    0.0000 </r>
       <r>    7.5659    0.0000 </r>
       <r>    7.9788    0.0000 </r>
       <r>    9.1264    0.0000 </r>
      </set>
      <set comment="kpoint 43">
       <r>   -5.2538    1.0000 </r>
       <r>   -3.7618    1.0000 </r>
       <r>   -3.7499    1.0000 </r>
       <r>   -3.4124    1.0000 </r>
       <r>   -1.0248    1.0000 </r>
       <r>   -0.8624    1.0000 </r>
       <r>   -0.5838    1.0000 </r>
       <r>    1.2211    1.0000 </r>
       <r>    2.4122    1.0000 </r>
       <r>    2.4194    1.0000 </r>
       <r>    2.7176    1.0000 </r>
       <r>    3.3825    1.0000 </r>
       <r>    3.6139    1.0000 </r>
       <r>    3.7357    1.0000 </r>
       <r>    4.6099    1.0000 </r>
       <r>    4.9427    1.0000 </r>
       <r>    7.0991    0.0000 </r>
       <r>    7.2093    0.0000 </r>
       <r>    7.4742    0.0000 </r>
       <r>    7.4992    0.0000 </r>
       <r>   10.9034    0.0000 </r>
      </set>
      <set comment="kpoint 44">
       <r>   -4.9176    1.0000 </r>
       <r>   -4.2487    1.0000 </r>
       <r>   -3.6701    1.0000 </r>
       <r>   -3.3238    1.0000 </r>
       <r>   -1.3201    1.0000 </r>
       <r>   -1.1341    1.0000 </r>
       <r>   -0.1714    1.0000 </r>
       <r>    0.5094    1.0000 </r>
       <r>    2.5109    1.0000 </r>
       <r>    2.8327    1.0000 </r>
       <r>    3.5531    1.0000 </r>
       <r>    3.5668    1.0000 </r>
       <r>    3.6665    1.0000 </r>
       <r>    3.7760    1.0000 </r>
       <r>    4.3011    1.0000 </r>
       <r>    4.5331    1.0000 </r>
       <r>    7.4641    0.0000 </r>
       <r>    7.7484    0.0000 </r>
       <r>    7.9088    0.0000 </r>
       <r>    8.1429    0.0000 </r>
       <r>    8.7323    0.0000 </r>
      </set>
      <set comment="kpoint 45">
       <r>   -5.1516    1.0000 </r>
       <r>   -4.5299    1.0000 </r>
       <r>   -3.4445    1.0000 </r>
       <r>   -3.2241    1.0000 </r>
       <r>   -0.7518    1.0000 </r>
       <r>   -0.7054    1.0000 </r>
       <r>    0.5495    1.0000 </r>
       <r>    1.3372    1.0000 </r>
       <r>    1.6915    1.0000 </r>
       <r>    1.9392    1.0000 </r>
       <r>    2.6403    1.0000 </r>
       <r>    3.0671    1.0000 </r>
       <r>    3.1919    1.0000 </r>
       <r>    3.2971    1.0000 </r>
       <r>    4.1373    1.0000 </r>
       <r>    4.5132    1.0000 </r>
       <r>    7.4920    0.0000 </r>
       <r>    8.1134    0.0000 </r>
       <r>    8.6127    0.0000 </r>
       <r>    8.8641    0.0000 </r>
       <r>    9.1658    0.0000 </r>
      </set>
      <set comment="kpoint 46">
       <r>   -5.0803    1.0000 </r>
       <r>   -4.4668    1.0000 </r>
       <r>   -3.4504    1.0000 </r>
       <r>   -3.3075    1.0000 </r>
       <r>   -0.9429    1.0000 </r>
       <r>   -0.8397    1.0000 </r>
       <r>    0.2229    1.0000 </r>
       <r>    1.2413    1.0000 </r>
       <r>    1.8233    1.0000 </r>
       <r>    2.0320    1.0000 </r>
       <r>    2.9611    1.0000 </r>
       <r>    3.2656    1.0000 </r>
       <r>    3.4191    1.0000 </r>
       <r>    3.6545    1.0000 </r>
       <r>    4.1475    1.0000 </r>
       <r>    4.4520    1.0000 </r>
       <r>    7.5519    0.0000 </r>
       <r>    7.8178    0.0000 </r>
       <r>    8.2069    0.0000 </r>
       <r>    8.6305    0.0000 </r>
       <r>    9.0938    0.0000 </r>
      </set>
      <set comment="kpoint 47">
       <r>   -4.8756    1.0000 </r>
       <r>   -4.2916    1.0000 </r>
       <r>   -3.6252    1.0000 </r>
       <r>   -3.4416    1.0000 </r>
       <r>   -1.2452    1.0000 </r>
       <r>   -0.9161    1.0000 </r>
       <r>   -0.3692    1.0000 </r>
       <r>    0.5054    1.0000 </r>
       <r>    2.5298    1.0000 </r>
       <r>    2.6091    1.0000 </r>
       <r>    3.4615    1.0000 </r>
       <r>    3.5027    1.0000 </r>
       <r>    3.8034    1.0000 </r>
       <r>    4.0590    1.0000 </r>
       <r>    4.2504    1.0000 </r>
       <r>    4.5387    1.0000 </r>
       <r>    7.5443    0.0000 </r>
       <r>    7.6448    0.0000 </r>
       <r>    7.9101    0.0000 </r>
       <r>    8.0564    0.0000 </r>
       <r>    8.9454    0.0000 </r>
      </set>
      <set comment="kpoint 48">
       <r>   -4.5899    1.0000 </r>
       <r>   -4.0845    1.0000 </r>
       <r>   -3.9636    1.0000 </r>
       <r>   -3.5726    1.0000 </r>
       <r>   -1.3100    1.0000 </r>
       <r>   -0.9287    1.0000 </r>
       <r>   -0.6695    1.0000 </r>
       <r>   -0.1288    1.0000 </r>
       <r>    3.0032    1.0000 </r>
       <r>    3.2308    1.0000 </r>
       <r>    3.5303    1.0000 </r>
       <r>    3.8161    1.0000 </r>
       <r>    4.0588    1.0000 </r>
       <r>    4.2024    1.0000 </r>
       <r>    4.2745    1.0000 </r>
       <r>    4.7341    1.0000 </r>
       <r>    7.5256    0.0000 </r>
       <r>    7.7122    0.0000 </r>
       <r>    7.9588    0.0000 </r>
       <r>    8.1706    0.0000 </r>
       <r>    8.6783    0.0000 </r>
      </set>
      <set comment="kpoint 49">
       <r>   -5.1106    1.0000 </r>
       <r>   -4.5939    1.0000 </r>
       <r>   -3.5681    1.0000 </r>
       <r>   -3.0289    1.0000 </r>
       <r>   -1.1555    1.0000 </r>
       <r>   -0.3244    1.0000 </r>
       <r>    0.9200    1.0000 </r>
       <r>    1.2153    1.0000 </r>
       <r>    1.5393    1.0000 </r>
       <r>    1.7506    1.0000 </r>
       <r>    2.5831    1.0000 </r>
       <r>    2.9821    1.0000 </r>
       <r>    3.1464    1.0000 </r>
       <r>    3.4903    1.0000 </r>
       <r>    3.7567    1.0000 </r>
       <r>    4.9758    1.0000 </r>
       <r>    7.8405    0.0000 </r>
       <r>    8.2177    0.0000 </r>
       <r>    8.4600    0.0000 </r>
       <r>    8.7608    0.0000 </r>
       <r>    9.1410    0.0000 </r>
      </set>
      <set comment="kpoint 50">
       <r>   -5.0370    1.0000 </r>
       <r>   -4.5350    1.0000 </r>
       <r>   -3.5690    1.0000 </r>
       <r>   -3.1373    1.0000 </r>
       <r>   -1.2360    1.0000 </r>
       <r>   -0.5586    1.0000 </r>
       <r>    0.5421    1.0000 </r>
       <r>    0.9545    1.0000 </r>
       <r>    1.7322    1.0000 </r>
       <r>    2.0277    1.0000 </r>
       <r>    2.8851    1.0000 </r>
       <r>    3.1992    1.0000 </r>
       <r>    3.5484    1.0000 </r>
       <r>    3.6205    1.0000 </r>
       <r>    3.8139    1.0000 </r>
       <r>    4.8913    1.0000 </r>
       <r>    7.8798    0.0000 </r>
       <r>    7.9023    0.0000 </r>
       <r>    8.1997    0.0000 </r>
       <r>    8.6557    0.0000 </r>
       <r>    8.8976    0.0000 </r>
      </set>
      <set comment="kpoint 51">
       <r>   -4.8246    1.0000 </r>
       <r>   -4.3727    1.0000 </r>
       <r>   -3.6035    1.0000 </r>
       <r>   -3.4627    1.0000 </r>
       <r>   -1.2330    1.0000 </r>
       <r>   -0.8969    1.0000 </r>
       <r>   -0.0967    1.0000 </r>
       <r>    0.2642    1.0000 </r>
       <r>    2.4288    1.0000 </r>
       <r>    2.5381    1.0000 </r>
       <r>    3.2175    1.0000 </r>
       <r>    3.7220    1.0000 </r>
       <r>    3.7973    1.0000 </r>
       <r>    4.0304    1.0000 </r>
       <r>    4.3022    1.0000 </r>
       <r>    4.6784    1.0000 </r>
       <r>    7.6657    0.0000 </r>
       <r>    7.7219    0.0000 </r>
       <r>    8.0165    0.0000 </r>
       <r>    8.1947    0.0000 </r>
       <r>    8.8206    0.0000 </r>
      </set>
      <set comment="kpoint 52">
       <r>   -4.5280    1.0000 </r>
       <r>   -4.1656    1.0000 </r>
       <r>   -3.8835    1.0000 </r>
       <r>   -3.7015    1.0000 </r>
       <r>   -1.0297    1.0000 </r>
       <r>   -0.9620    1.0000 </r>
       <r>   -0.6115    1.0000 </r>
       <r>   -0.3359    1.0000 </r>
       <r>    2.7469    1.0000 </r>
       <r>    3.2220    1.0000 </r>
       <r>    3.3723    1.0000 </r>
       <r>    3.9324    1.0000 </r>
       <r>    4.1363    1.0000 </r>
       <r>    4.2804    1.0000 </r>
       <r>    4.4332    1.0000 </r>
       <r>    4.7212    1.0000 </r>
       <r>    7.6185    0.0000 </r>
       <r>    7.7614    0.0000 </r>
       <r>    7.8737    0.0000 </r>
       <r>    8.0771    0.0000 </r>
       <r>    8.9110    0.0000 </r>
      </set>
      <set comment="kpoint 53">
       <r>   -5.5348    1.0000 </r>
       <r>   -4.0174    1.0000 </r>
       <r>   -3.7235    1.0000 </r>
       <r>   -2.5931    1.0000 </r>
       <r>   -1.5591    1.0000 </r>
       <r>    0.0146    1.0000 </r>
       <r>    0.0363    1.0000 </r>
       <r>    1.2209    1.0000 </r>
       <r>    2.1562    1.0000 </r>
       <r>    2.2542    1.0000 </r>
       <r>    2.3936    1.0000 </r>
       <r>    2.7803    1.0000 </r>
       <r>    3.1254    1.0000 </r>
       <r>    3.4662    1.0000 </r>
       <r>    3.7759    1.0000 </r>
       <r>    5.5337    0.9989 </r>
       <r>    7.1281    0.0000 </r>
       <r>    7.9040    0.0000 </r>
       <r>    7.9539    0.0000 </r>
       <r>    8.5093    0.0000 </r>
       <r>    8.7933    0.0000 </r>
      </set>
      <set comment="kpoint 54">
       <r>   -5.4553    1.0000 </r>
       <r>   -3.9850    1.0000 </r>
       <r>   -3.6783    1.0000 </r>
       <r>   -2.9442    1.0000 </r>
       <r>   -1.3223    1.0000 </r>
       <r>   -0.2203    1.0000 </r>
       <r>   -0.1434    1.0000 </r>
       <r>    1.4601    1.0000 </r>
       <r>    1.8874    1.0000 </r>
       <r>    2.2073    1.0000 </r>
       <r>    2.2349    1.0000 </r>
       <r>    3.1695    1.0000 </r>
       <r>    3.3337    1.0000 </r>
       <r>    3.5446    1.0000 </r>
       <r>    4.2344    1.0000 </r>
       <r>    5.3936    1.0000 </r>
       <r>    7.2205    0.0000 </r>
       <r>    7.3987    0.0000 </r>
       <r>    7.5779    0.0000 </r>
       <r>    8.0800    0.0000 </r>
       <r>    9.4288    0.0000 </r>
      </set>
      <set comment="kpoint 55">
       <r>   -5.2229    1.0000 </r>
       <r>   -3.9212    1.0000 </r>
       <r>   -3.5653    1.0000 </r>
       <r>   -3.5535    1.0000 </r>
       <r>   -0.9406    1.0000 </r>
       <r>   -0.6692    1.0000 </r>
       <r>   -0.4789    1.0000 </r>
       <r>    1.0074    1.0000 </r>
       <r>    2.1102    1.0000 </r>
       <r>    2.3960    1.0000 </r>
       <r>    2.3988    1.0000 </r>
       <r>    3.6344    1.0000 </r>
       <r>    3.6747    1.0000 </r>
       <r>    3.7774    1.0000 </r>
       <r>    4.6921    1.0000 </r>
       <r>    5.0503    1.0000 </r>
       <r>    7.2560    0.0000 </r>
       <r>    7.3813    0.0000 </r>
       <r>    7.4633    0.0000 </r>
       <r>    7.6432    0.0000 </r>
       <r>    9.0093    0.0000 </r>
      </set>
      <set comment="kpoint 56">
       <r>   -4.8786    1.0000 </r>
       <r>   -4.1946    1.0000 </r>
       <r>   -3.7838    1.0000 </r>
       <r>   -3.4590    1.0000 </r>
       <r>   -0.9915    1.0000 </r>
       <r>   -0.8579    1.0000 </r>
       <r>   -0.3593    1.0000 </r>
       <r>    0.3286    1.0000 </r>
       <r>    2.1636    1.0000 </r>
       <r>    2.5460    1.0000 </r>
       <r>    3.3463    1.0000 </r>
       <r>    3.7806    1.0000 </r>
       <r>    3.8956    1.0000 </r>
       <r>    3.9779    1.0000 </r>
       <r>    4.2946    1.0000 </r>
       <r>    4.6884    1.0000 </r>
       <r>    7.6687    0.0000 </r>
       <r>    7.8820    0.0000 </r>
       <r>    7.8831    0.0000 </r>
       <r>    8.0747    0.0000 </r>
       <r>    9.1295    0.0000 </r>
      </set>
      <set comment="kpoint 57">
       <r>   -4.7750    1.0000 </r>
       <r>   -4.2527    1.0000 </r>
       <r>   -4.0150    1.0000 </r>
       <r>   -3.7436    1.0000 </r>
       <r>   -0.2064    1.0000 </r>
       <r>   -0.0525    1.0000 </r>
       <r>   -0.0340    1.0000 </r>
       <r>    1.0473    1.0000 </r>
       <r>    1.6043    1.0000 </r>
       <r>    1.9500    1.0000 </r>
       <r>    2.1169    1.0000 </r>
       <r>    2.4697    1.0000 </r>
       <r>    3.7122    1.0000 </r>
       <r>    4.0057    1.0000 </r>
       <r>    4.4839    1.0000 </r>
       <r>    4.5246    1.0000 </r>
       <r>    7.4508    0.0000 </r>
       <r>    8.2558    0.0000 </r>
       <r>    8.4049    0.0000 </r>
       <r>    8.8261    0.0000 </r>
       <r>    9.4873    0.0000 </r>
      </set>
      <set comment="kpoint 58">
       <r>   -4.7159    1.0000 </r>
       <r>   -4.2112    1.0000 </r>
       <r>   -3.9652    1.0000 </r>
       <r>   -3.7408    1.0000 </r>
       <r>   -0.5379    1.0000 </r>
       <r>   -0.4083    1.0000 </r>
       <r>   -0.3496    1.0000 </r>
       <r>    0.5741    1.0000 </r>
       <r>    2.0887    1.0000 </r>
       <r>    2.4155    1.0000 </r>
       <r>    2.5339    1.0000 </r>
       <r>    3.0783    1.0000 </r>
       <r>    3.7484    1.0000 </r>
       <r>    4.0376    1.0000 </r>
       <r>    4.5203    1.0000 </r>
       <r>    4.5238    1.0000 </r>
       <r>    7.5006    0.0000 </r>
       <r>    8.1568    0.0000 </r>
       <r>    8.3782    0.0000 </r>
       <r>    8.6413    0.0000 </r>
       <r>    9.1062    0.0000 </r>
      </set>
      <set comment="kpoint 59">
       <r>   -4.5537    1.0000 </r>
       <r>   -4.1087    1.0000 </r>
       <r>   -3.8590    1.0000 </r>
       <r>   -3.7442    1.0000 </r>
       <r>   -1.0556    1.0000 </r>
       <r>   -0.9061    1.0000 </r>
       <r>   -0.8762    1.0000 </r>
       <r>   -0.1396    1.0000 </r>
       <r>    3.0693    1.0000 </r>
       <r>    3.3110    1.0000 </r>
       <r>    3.3111    1.0000 </r>
       <r>    3.8499    1.0000 </r>
       <r>    4.0348    1.0000 </r>
       <r>    4.1239    1.0000 </r>
       <r>    4.5021    1.0000 </r>
       <r>    4.6220    1.0000 </r>
       <r>    7.4638    0.0000 </r>
       <r>    7.7293    0.0000 </r>
       <r>    8.0060    0.0000 </r>
       <r>    8.0293    0.0000 </r>
       <r>    8.8639    0.0000 </r>
      </set>
      <set comment="kpoint 60">
       <r>   -4.3582    1.0000 </r>
       <r>   -4.0146    1.0000 </r>
       <r>   -3.9012    1.0000 </r>
       <r>   -3.6683    1.0000 </r>
       <r>   -1.4406    1.0000 </r>
       <r>   -1.2229    1.0000 </r>
       <r>   -1.0552    1.0000 </r>
       <r>   -0.6663    1.0000 </r>
       <r>    3.7820    1.0000 </r>
       <r>    3.9990    1.0000 </r>
       <r>    4.0113    1.0000 </r>
       <r>    4.1574    1.0000 </r>
       <r>    4.2869    1.0000 </r>
       <r>    4.4715    1.0000 </r>
       <r>    4.4840    1.0000 </r>
       <r>    4.7738    1.0000 </r>
       <r>    7.0578    0.0000 </r>
       <r>    7.3568    0.0000 </r>
       <r>    7.5818    0.0000 </r>
       <r>    8.8125    0.0000 </r>
       <r>    8.9223    0.0000 </r>
      </set>
      <set comment="kpoint 61">
       <r>   -4.7064    1.0000 </r>
       <r>   -4.3721    1.0000 </r>
       <r>   -4.0796    1.0000 </r>
       <r>   -3.6118    1.0000 </r>
       <r>   -0.6235    1.0000 </r>
       <r>    0.3267    1.0000 </r>
       <r>    0.4098    1.0000 </r>
       <r>    0.6500    1.0000 </r>
       <r>    1.5841    1.0000 </r>
       <r>    1.8883    1.0000 </r>
       <r>    2.1059    1.0000 </r>
       <r>    2.5278    1.0000 </r>
       <r>    3.6356    1.0000 </r>
       <r>    4.0478    1.0000 </r>
       <r>    4.1196    1.0000 </r>
       <r>    4.9424    1.0000 </r>
       <r>    7.7967    0.0000 </r>
[...]
       <r>     2.3524     4.3105    18.9337 </r>
       <r>     2.3724     4.4284    19.0224 </r>
       <r>     2.3924     4.5569    19.1136 </r>
       <r>     2.4124     4.6914    19.2075 </r>
       <r>     2.4324     4.8271    19.3042 </r>
       <r>     2.4525     4.9591    19.4034 </r>
       <r>     2.4725     5.0824    19.5052 </r>
       <r>     2.4925     5.1927    19.6092 </r>
       <r>     2.5125     5.2862    19.7150 </r>
       <r>     2.5325     5.3600    19.8223 </r>
       <r>     2.5526     5.4121    19.9306 </r>
       <r>     2.5726     5.4418    20.0396 </r>
       <r>     2.5926     5.4493    20.1487 </r>
       <r>     2.6126     5.4363    20.2575 </r>
       <r>     2.6326     5.4056    20.3657 </r>
       <r>     2.6527     5.3607    20.4731 </r>
       <r>     2.6727     5.3063    20.5793 </r>
       <r>     2.6927     5.2473    20.6843 </r>
       <r>     2.7127     5.1888    20.7882 </r>
       <r>     2.7327     5.1359    20.8910 </r>
       <r>     2.7528     5.0932    20.9930 </r>
       <r>     2.7728     5.0647    21.0944 </r>
       <r>     2.7928     5.0531    21.1956 </r>
       <r>     2.8128     5.0603    21.2969 </r>
       <r>     2.8328     5.0868    21.3987 </r>
       <r>     2.8529     5.1320    21.5015 </r>
       <r>     2.8729     5.1938    21.6054 </r>
       <r>     2.8929     5.2695    21.7109 </r>
       <r>     2.9129     5.3554    21.8181 </r>
       <r>     2.9329     5.4474    21.9272 </r>
       <r>     2.9530     5.5413    22.0381 </r>
       <r>     2.9730     5.6328    22.1509 </r>
       <r>     2.9930     5.7185    22.2654 </r>
       <r>     3.0130     5.7952    22.3814 </r>
       <r>     3.0330     5.8606    22.4987 </r>
       <r>     3.0531     5.9136    22.6171 </r>
       <r>     3.0731     5.9536    22.7363 </r>
       <r>     3.0931     5.9809    22.8561 </r>
       <r>     3.1131     5.9966    22.9761 </r>
       <r>     3.1331     6.0020    23.0963 </r>
       <r>     3.1532     5.9990    23.2164 </r>
       <r>     3.1732     5.9894    23.3363 </r>
       <r>     3.1932     5.9751    23.4559 </r>
       <r>     3.2132     5.9577    23.5752 </r>
       <r>     3.2332     5.9388    23.6941 </r>
       <r>     3.2533     5.9193    23.8126 </r>
       <r>     3.2733     5.9002    23.9307 </r>
       <r>     3.2933     5.8817    24.0485 </r>
       <r>     3.3133     5.8638    24.1658 </r>
       <r>     3.3333     5.8460    24.2829 </r>
       <r>     3.3534     5.8275    24.3996 </r>
       <r>     3.3734     5.8071    24.5158 </r>
       <r>     3.3934     5.7834    24.6316 </r>
       <r>     3.4134     5.7549    24.7468 </r>
       <r>     3.4334     5.7203    24.8613 </r>
       <r>     3.4535     5.6785    24.9750 </r>
       <r>     3.4735     5.6285    25.0877 </r>
       <r>     3.4935     5.5702    25.1992 </r>
       <r>     3.5135     5.5039    25.3094 </r>
       <r>     3.5335     5.4304    25.4181 </r>
       <r>     3.5536     5.3512    25.5252 </r>
       <r>     3.5736     5.2683    25.6307 </r>
       <r>     3.5936     5.1839    25.7345 </r>
       <r>     3.6136     5.1002    25.8366 </r>
       <r>     3.6336     5.0197    25.9371 </r>
       <r>     3.6537     4.9444    26.0361 </r>
       <r>     3.6737     4.8761    26.1337 </r>
       <r>     3.6937     4.8161    26.2301 </r>
       <r>     3.7137     4.7654    26.3255 </r>
       <r>     3.7337     4.7243    26.4201 </r>
       <r>     3.7538     4.6929    26.5141 </r>
       <r>     3.7738     4.6709    26.6076 </r>
       <r>     3.7938     4.6576    26.7008 </r>
       <r>     3.8138     4.6524    26.7940 </r>
       <r>     3.8338     4.6542    26.8871 </r>
       <r>     3.8539     4.6621    26.9805 </r>
       <r>     3.8739     4.6748    27.0741 </r>
       <r>     3.8939     4.6913    27.1680 </r>
       <r>     3.9139     4.7103    27.2623 </r>
       <r>     3.9339     4.7304    27.3570 </r>
       <r>     3.9540     4.7503    27.4521 </r>
       <r>     3.9740     4.7688    27.5476 </r>
       <r>     3.9940     4.7845    27.6433 </r>
       <r>     4.0140     4.7963    27.7394 </r>
       <r>     4.0340     4.8031    27.8355 </r>
       <r>     4.0541     4.8042    27.9317 </r>
       <r>     4.0741     4.7988    28.0278 </r>
       <r>     4.0941     4.7868    28.1236 </r>
       <r>     4.1141     4.7678    28.2191 </r>
       <r>     4.1341     4.7420    28.3140 </r>
       <r>     4.1542     4.7096    28.4083 </r>
       <r>     4.1742     4.6708    28.5018 </r>
       <r>     4.1942     4.6259    28.5944 </r>
       <r>     4.2142     4.5751    28.6860 </r>
       <r>     4.2342     4.5184    28.7765 </r>
       <r>     4.2543     4.4560    28.8657 </r>
       <r>     4.2743     4.3877    28.9535 </r>
       <r>     4.2943     4.3135    29.0399 </r>
       <r>     4.3143     4.2335    29.1246 </r>
       <r>     4.3343     4.1480    29.2077 </r>
       <r>     4.3544     4.0574    29.2889 </r>
       <r>     4.3744     3.9629    29.3682 </r>
       <r>     4.3944     3.8659    29.4456 </r>
       <r>     4.4144     3.7683    29.5211 </r>
       <r>     4.4344     3.6724    29.5946 </r>
       <r>     4.4545     3.5807    29.6663 </r>
       <r>     4.4745     3.4959    29.7363 </r>
       <r>     4.4945     3.4204    29.8047 </r>
       <r>     4.5145     3.3561    29.8719 </r>
       <r>     4.5345     3.3043    29.9381 </r>
       <r>     4.5546     3.2654    30.0034 </r>
       <r>     4.5746     3.2386    30.0683 </r>
       <r>     4.5946     3.2222    30.1328 </r>
       <r>     4.6146     3.2136    30.1971 </r>
       <r>     4.6346     3.2093    30.2614 </r>
       <r>     4.6547     3.2053    30.3255 </r>
       <r>     4.6747     3.1979    30.3896 </r>
       <r>     4.6947     3.1834    30.4533 </r>
       <r>     4.7147     3.1588    30.5165 </r>
       <r>     4.7347     3.1220    30.5790 </r>
       <r>     4.7548     3.0723    30.6405 </r>
       <r>     4.7748     3.0095    30.7008 </r>
       <r>     4.7948     2.9350    30.7596 </r>
       <r>     4.8148     2.8505    30.8166 </r>
       <r>     4.8348     2.7585    30.8719 </r>
       <r>     4.8549     2.6617    30.9251 </r>
       <r>     4.8749     2.5626    30.9764 </r>
       <r>     4.8949     2.4637    31.0258 </r>
       <r>     4.9149     2.3669    31.0732 </r>
       <r>     4.9349     2.2738    31.1187 </r>
       <r>     4.9550     2.1854    31.1624 </r>
       <r>     4.9750     2.1023    31.2045 </r>
       <r>     4.9950     2.0246    31.2450 </r>
       <r>     5.0150     1.9523    31.2841 </r>
       <r>     5.0350     1.8849    31.3219 </r>
       <r>     5.0551     1.8218    31.3583 </r>
       <r>     5.0751     1.7622    31.3936 </r>
       <r>     5.0951     1.7051    31.4277 </r>
       <r>     5.1151     1.6495    31.4608 </r>
       <r>     5.1351     1.5945    31.4927 </r>
       <r>     5.1552     1.5390    31.5235 </r>
       <r>     5.1752     1.4824    31.5532 </r>
       <r>     5.1952     1.4240    31.5817 </r>
       <r>     5.2152     1.3636    31.6090 </r>
       <r>     5.2352     1.3012    31.6350 </r>
       <r>     5.2553     1.2372    31.6598 </r>
       <r>     5.2753     1.1724    31.6833 </r>
       <r>     5.2953     1.1074    31.7054 </r>
       <r>     5.3153     1.0434    31.7263 </r>
       <r>     5.3353     0.9812    31.7460 </r>
       <r>     5.3554     0.9219    31.7644 </r>
       <r>     5.3754     0.8662    31.7818 </r>
       <r>     5.3954     0.8146    31.7981 </r>
       <r>     5.4154     0.7673    31.8134 </r>
       <r>     5.4354     0.7244    31.8280 </r>
       <r>     5.4555     0.6854    31.8417 </r>
       <r>     5.4755     0.6499    31.8547 </r>
       <r>     5.4955     0.6171    31.8670 </r>
       <r>     5.5155     0.5863    31.8788 </r>
       <r>     5.5355     0.5566    31.8899 </r>
       <r>     5.5556     0.5273    31.9005 </r>
       <r>     5.5756     0.4978    31.9104 </r>
       <r>     5.5956     0.4676    31.9198 </r>
       <r>     5.6156     0.4365    31.9285 </r>
       <r>     5.6356     0.4046    31.9366 </r>
       <r>     5.6557     0.3721    31.9441 </r>
       <r>     5.6757     0.3394    31.9509 </r>
       <r>     5.6957     0.3071    31.9570 </r>
       <r>     5.7157     0.2758    31.9626 </r>
       <r>     5.7357     0.2461    31.9675 </r>
       <r>     5.7558     0.2186    31.9719 </r>
       <r>     5.7758     0.1937    31.9757 </r>
       <r>     5.7958     0.1718    31.9792 </r>
       <r>     5.8158     0.1531    31.9822 </r>
       <r>     5.8358     0.1376    31.9850 </r>
       <r>     5.8559     0.1255    31.9875 </r>
       <r>     5.8759     0.1167    31.9899 </r>
       <r>     5.8959     0.1110    31.9921 </r>
       <r>     5.9159     0.1083    31.9942 </r>
       <r>     5.9359     0.1087    31.9964 </r>
       <r>     5.9560     0.1119    31.9987 </r>
       <r>     5.9760     0.1179    32.0010 </r>
       <r>     5.9960     0.1267    32.0036 </r>
       <r>     6.0160     0.1382    32.0063 </r>
       <r>     6.0360     0.1522    32.0094 </r>
       <r>     6.0561     0.1688    32.0127 </r>
       <r>     6.0761     0.1877    32.0165 </r>
       <r>     6.0961     0.2089    32.0207 </r>
       <r>     6.1161     0.2321    32.0253 </r>
       <r>     6.1361     0.2572    32.0305 </r>
       <r>     6.1562     0.2842    32.0362 </r>
       <r>     6.1762     0.3130    32.0424 </r>
       <r>     6.1962     0.3437    32.0493 </r>
       <r>     6.2162     0.3763    32.0569 </r>
       <r>     6.2362     0.4108    32.0651 </r>
       <r>     6.2563     0.4473    32.0740 </r>
       <r>     6.2763     0.4858    32.0838 </r>
       <r>     6.2963     0.5262    32.0943 </r>
       <r>     6.3163     0.5684    32.1057 </r>
       <r>     6.3363     0.6122    32.1179 </r>
       <r>     6.3564     0.6572    32.1311 </r>
       <r>     6.3764     0.7031    32.1452 </r>
       <r>     6.3964     0.7497    32.1602 </r>
       <r>     6.4164     0.7967    32.1761 </r>
       <r>     6.4364     0.8441    32.1930 </r>
       <r>     6.4565     0.8921    32.2109 </r>
       <r>     6.4765     0.9410    32.2297 </r>
       <r>     6.4965     0.9912    32.2496 </r>
       <r>     6.5165     1.0435    32.2704 </r>
       <r>     6.5365     1.0985    32.2924 </r>
       <r>     6.5566     1.1567    32.3156 </r>
       <r>     6.5766     1.2187    32.3400 </r>
       <r>     6.5966     1.2846    32.3657 </r>
       <r>     6.6166     1.3541    32.3928 </r>
       <r>     6.6366     1.4269    32.4214 </r>
       <r>     6.6567     1.5020    32.4515 </r>
       <r>     6.6767     1.5785    32.4831 </r>
       <r>     6.6967     1.6551    32.5162 </r>
       <r>     6.7167     1.7309    32.5509 </r>
       <r>     6.7367     1.8048    32.5870 </r>
       <r>     6.7568     1.8765    32.6246 </r>
       <r>     6.7768     1.9458    32.6635 </r>
       <r>     6.7968     2.0129    32.7038 </r>
       <r>     6.8168     2.0785    32.7454 </r>
       <r>     6.8368     2.1434    32.7883 </r>
       <r>     6.8569     2.2086    32.8325 </r>
       <r>     6.8769     2.2746    32.8781 </r>
       <r>     6.8969     2.3420    32.9250 </r>
       <r>     6.9169     2.4107    32.9732 </r>
       <r>     6.9369     2.4801    33.0229 </r>
       <r>     6.9570     2.5492    33.0739 </r>
       <r>     6.9770     2.6166    33.1263 </r>
       <r>     6.9970     2.6805    33.1800 </r>
       <r>     7.0170     2.7392    33.2348 </r>
       <r>     7.0370     2.7909    33.2907 </r>
       <r>     7.0571     2.8344    33.3474 </r>
       <r>     7.0771     2.8686    33.4048 </r>
       <r>     7.0971     2.8933    33.4628 </r>
       <r>     7.1171     2.9087    33.5210 </r>
       <r>     7.1371     2.9157    33.5794 </r>
       <r>     7.1572     2.9159    33.6378 </r>
       <r>     7.1772     2.9114    33.6960 </r>
       <r>     7.1972     2.9047    33.7542 </r>
       <r>     7.2172     2.8989    33.8122 </r>
       <r>     7.2372     2.8971    33.8702 </r>
       <r>     7.2573     2.9026    33.9283 </r>
       <r>     7.2773     2.9187    33.9868 </r>
       <r>     7.2973     2.9483    34.0458 </r>
       <r>     7.3173     2.9941    34.1057 </r>
       <r>     7.3373     3.0582    34.1670 </r>
       <r>     7.3574     3.1419    34.2299 </r>
       <r>     7.3774     3.2459    34.2948 </r>
       <r>     7.3974     3.3698    34.3623 </r>
       <r>     7.4174     3.5123    34.4326 </r>
       <r>     7.4374     3.6713    34.5061 </r>
       <r>     7.4575     3.8436    34.5831 </r>
       <r>     7.4775     4.0256    34.6637 </r>
       <r>     7.4975     4.2126    34.7480 </r>
       <r>     7.5175     4.3997    34.8361 </r>
       <r>     7.5375     4.5818    34.9278 </r>
       <r>     7.5576     4.7536    35.0230 </r>
       <r>     7.5776     4.9105    35.1213 </r>
       <r>     7.5976     5.0479    35.2223 </r>
       <r>     7.6176     5.1625    35.3257 </r>
       <r>     7.6376     5.2519    35.4308 </r>
       <r>     7.6577     5.3149    35.5372 </r>
       <r>     7.6777     5.3519    35.6444 </r>
       <r>     7.6977     5.3641    35.7518 </r>
       <r>     7.7177     5.3545    35.8590 </r>
       <r>     7.7377     5.3266    35.9656 </r>
       <r>     7.7578     5.2848    36.0714 </r>
       <r>     7.7778     5.2339    36.1762 </r>
       <r>     7.7978     5.1785    36.2799 </r>
       <r>     7.8178     5.1229    36.3824 </r>
       <r>     7.8378     5.0710    36.4840 </r>
       <r>     7.8579     5.0256    36.5846 </r>
       <r>     7.8779     4.9888    36.6844 </r>
       <r>     7.8979     4.9618    36.7838 </r>
       <r>     7.9179     4.9447    36.8828 </r>
       <r>     7.9379     4.9371    36.9816 </r>
       <r>     7.9580     4.9376    37.0805 </r>
       <r>     7.9780     4.9445    37.1795 </r>
       <r>     7.9980     4.9556    37.2787 </r>
       <r>     8.0180     4.9683    37.3781 </r>
       <r>     8.0380     4.9800    37.4778 </r>
       <r>     8.0581     4.9879    37.5777 </r>
       <r>     8.0781     4.9894    37.6776 </r>
       <r>     8.0981     4.9821    37.7773 </r>
       <r>     8.1181     4.9641    37.8767 </r>
       <r>     8.1381     4.9339    37.9755 </r>
       <r>     8.1582     4.8908    38.0734 </r>
       <r>     8.1782     4.8348    38.1702 </r>
       <r>     8.1982     4.7667    38.2656 </r>
       <r>     8.2182     4.6879    38.3595 </r>
       <r>     8.2382     4.6007    38.4516 </r>
       <r>     8.2583     4.5076    38.5418 </r>
       <r>     8.2783     4.4114    38.6301 </r>
       <r>     8.2983     4.3151    38.7165 </r>
       <r>     8.3183     4.2211    38.8010 </r>
       <r>     8.3383     4.1320    38.8838 </r>
       <r>     8.3584     4.0494    38.9648 </r>
       <r>     8.3784     3.9746    39.0444 </r>
       <r>     8.3984     3.9080    39.1226 </r>
       <r>     8.4184     3.8498    39.1997 </r>
       <r>     8.4384     3.7992    39.2758 </r>
       <r>     8.4585     3.7552    39.3509 </r>
       <r>     8.4785     3.7163    39.4253 </r>
       <r>     8.4985     3.6809    39.4990 </r>
       <r>     8.5185     3.6471    39.5721 </r>
       <r>     8.5385     3.6131    39.6444 </r>
       <r>     8.5586     3.5771    39.7160 </r>
       <r>     8.5786     3.5378    39.7868 </r>
       <r>     8.5986     3.4940    39.8568 </r>
       <r>     8.6186     3.4450    39.9257 </r>
       <r>     8.6386     3.3909    39.9936 </r>
       <r>     8.6587     3.3321    40.0603 </r>
       <r>     8.6787     3.2696    40.1258 </r>
       <r>     8.6987     3.2050    40.1900 </r>
       <r>     8.7187     3.1400    40.2528 </r>
       <r>     8.7387     3.0766    40.3144 </r>
       <r>     8.7588     3.0167    40.3748 </r>
       <r>     8.7788     2.9620    40.4341 </r>
       <r>     8.7988     2.9137    40.4924 </r>
       <r>     8.8188     2.8724    40.5500 </r>
       <r>     8.8388     2.8384    40.6068 </r>
       <r>     8.8589     2.8109    40.6631 </r>
       <r>     8.8789     2.7888    40.7189 </r>
       <r>     8.8989     2.7704    40.7743 </r>
       <r>     8.9189     2.7535    40.8295 </r>
       <r>     8.9389     2.7357    40.8842 </r>
       <r>     8.9590     2.7146    40.9386 </r>
       <r>     8.9790     2.6877    40.9924 </r>
       <r>     8.9990     2.6526    41.0455 </r>
       <r>     9.0190     2.6075    41.0977 </r>
       <r>     9.0390     2.5507    41.1488 </r>
       <r>     9.0591     2.4815    41.1984 </r>
       <r>     9.0791     2.3994    41.2465 </r>
       <r>     9.0991     2.3048    41.2926 </r>
       <r>     9.1191     2.1987    41.3366 </r>
       <r>     9.1391     2.0826    41.3783 </r>
       <r>     9.1592     1.9588    41.4175 </r>
       <r>     9.1792     1.8296    41.4542 </r>
       <r>     9.1992     1.6977    41.4882 </r>
       <r>     9.2192     1.5660    41.5195 </r>
       <r>     9.2392     1.4369    41.5483 </r>
       <r>     9.2593     1.3127    41.5746 </r>
       <r>     9.2793     1.1954    41.5985 </r>
       <r>     9.2993     1.0862    41.6202 </r>
       <r>     9.3193     0.9859    41.6400 </r>
       <r>     9.3393     0.8951    41.6579 </r>
       <r>     9.3594     0.8134    41.6742 </r>
       <r>     9.3794     0.7405    41.6890 </r>
       <r>     9.3994     0.6756    41.7025 </r>
       <r>     9.4194     0.6180    41.7149 </r>
       <r>     9.4394     0.5666    41.7263 </r>
       <r>     9.4595     0.5207    41.7367 </r>
       <r>     9.4795     0.4794    41.7463 </r>
       <r>     9.4995     0.4421    41.7551 </r>
       <r>     9.5195     0.4083    41.7633 </r>
       <r>     9.5395     0.3774    41.7709 </r>
       <r>     9.5596     0.3491    41.7778 </r>
       <r>     9.5796     0.3230    41.7843 </r>
       <r>     9.5996     0.2987    41.7903 </r>
       <r>     9.6196     0.2761    41.7958 </r>
       <r>     9.6396     0.2546    41.8009 </r>
       <r>     9.6597     0.2341    41.8056 </r>
       <r>     9.6797     0.2144    41.8099 </r>
       <r>     9.6997     0.1951    41.8138 </r>
       <r>     9.7197     0.1763    41.8173 </r>
       <r>     9.7397     0.1580    41.8205 </r>
       <r>     9.7598     0.1401    41.8233 </r>
       <r>     9.7798     0.1228    41.8258 </r>
       <r>     9.7998     0.1062    41.8279 </r>
       <r>     9.8198     0.0907    41.8297 </r>
       <r>     9.8398     0.0765    41.8312 </r>
       <r>     9.8599     0.0636    41.8325 </r>
       <r>     9.8799     0.0524    41.8336 </r>
       <r>     9.8999     0.0429    41.8344 </r>
       <r>     9.9199     0.0353    41.8351 </r>
       <r>     9.9399     0.0297    41.8357 </r>
       <r>     9.9600     0.0262    41.8362 </r>
       <r>     9.9800     0.0249    41.8367 </r>
       <r>    10.0000     0.0259    41.8373 </r>
      </set>
     </set>
    </array>
   </total>
  </dos>
 </calculation>
 <structure name="finalpos" >
  <crystal>
   <varray name="basis" >
    <v>       5.46503124       0.00000000       0.00000000 </v>
    <v>       0.00000000       5.46503124       0.00000000 </v>
    <v>       0.00000000       0.00000000       5.46503124 </v>
   </varray>
   <i name="volume">    163.22171868 </i>
   <varray name="rec_basis" >
    <v>       0.18298157       0.00000000       0.00000000 </v>
    <v>       0.00000000       0.18298157       0.00000000 </v>
    <v>       0.00000000       0.00000000       0.18298157 </v>
   </varray>
  </crystal>
  <varray name="positions" >
   <v>       0.00000000       0.00000000       0.00000000 </v>
   <v>       0.00000000       0.50000000       0.50000000 </v>
   <v>       0.45000000       0.50000000       0.00000000 </v>
   <v>       0.50000000       0.00000000       0.50000000 </v>
   <v>       0.75000000       0.25000000       0.75000000 </v>
   <v>       0.25000000       0.25000000       0.25000000 </v>
   <v>       0.25000000       0.75000000       0.75000000 </v>
   <v>       0.75000000       0.75000000       0.25000000 </v>
  </varray>
 </structure>
</modeling>
