       N       E                     dE             d eps       ncg     rms          rms(c)
DAV:   1    -0.196582771218E+02   -0.19658E+02   -0.69546E+00    24   0.165E+01    0.415E+00
DAV:   2    -0.192275050096E+02    0.43077E+00   -0.23024E+00    16   0.960E+00    0.357E-01
DAV:   3    -0.192274568851E+02    0.48124E-04   -0.28784E-02    32   0.129E+00    0.142E-01
DAV:   4    -0.192273159812E+02    0.14090E-03   -0.13951E-04    16   0.122E-01    0.762E-02
DAV:   5    -0.192273120722E+02    0.39089E-05   -0.39213E-04    16   0.166E-01    0.292E-02
DAV:   6    -0.192276266151E+02   -0.31454E-03   -0.95782E-05    16   0.602E-02    0.904E-03
DAV:   7    -0.192277426479E+02   -0.11603E-03   -0.20845E-05    24   0.295E-02    0.582E-03
DAV:   8    -0.192278203448E+02   -0.77697E-04   -0.59260E-06    16   0.147E-02    0.207E-03
DAV:   9    -0.192278532625E+02   -0.32918E-04   -0.33205E-06    16   0.103E-02    0.106E-03
DAV:  10    -0.192278654903E+02   -0.12228E-04   -0.10391E-06    16   0.499E-03    0.497E-04
DAV:  11    -0.192278677529E+02   -0.22625E-05   -0.15169E-07    24   0.213E-03    0.312E-04
DAV:  12    -0.192278685519E+02   -0.79908E-06   -0.10354E-07    16   0.160E-03
   1 F= -.19227869E+02 E0= -.19231734E+02  d E =-.192279E+02
       N       E                     dE             d eps       ncg     rms          rms(c)
DAV:   1    -0.192390225375E+02   -0.11155E-01   -0.10062E-02    16   0.964E-01    0.432E-02
DAV:   2    -0.192389810094E+02    0.41528E-04   -0.22474E-04    16   0.114E-01    0.201E-02
DAV:   3    -0.192389772927E+02    0.37167E-05   -0.30380E-05    24   0.422E-02    0.116E-02
DAV:   4    -0.192389775197E+02   -0.22697E-06   -0.50720E-06    16   0.158E-02
   2 F= -.19238978E+02 E0= -.19242843E+02  d E =-.111090E-01
       N       E                     dE             d eps       ncg     rms          rms(c)
DAV:   1    -0.193581072368E+02   -0.11913E+00   -0.17705E+00    16   0.127E+01    0.581E-01
DAV:   2    -0.193502977129E+02    0.78095E-02   -0.42858E-02    24   0.146E+00    0.270E-01
DAV:   3    -0.193497615602E+02    0.53615E-03   -0.19283E-03    16   0.350E-01    0.163E-01
DAV:   4    -0.193497411473E+02    0.20413E-04   -0.53923E-04    24   0.196E-01    0.342E-02
DAV:   5    -0.193497604116E+02   -0.19264E-04   -0.88819E-05    16   0.780E-02    0.111E-02
DAV:   6    -0.193497716380E+02   -0.11226E-04   -0.68245E-06    16   0.241E-02    0.507E-03
DAV:   7    -0.193497876163E+02   -0.15978E-04   -0.38518E-06    16   0.127E-02    0.247E-03
DAV:   8    -0.193498021701E+02   -0.14554E-04   -0.17560E-06    16   0.529E-03    0.142E-03
DAV:   9    -0.193498099062E+02   -0.77361E-05   -0.13403E-06    16   0.466E-03    0.969E-04
DAV:  10    -0.193498123698E+02   -0.24636E-05   -0.36321E-07    16   0.231E-03    0.329E-04
DAV:  11    -0.193498126561E+02   -0.28625E-06   -0.25926E-08    32   0.613E-04
   3 F= -.19349813E+02 E0= -.19353678E+02  d E =-.110835E+00
       N       E                     dE             d eps       ncg     rms          rms(c)
DAV:   1    -0.194189987510E+02   -0.69186E-01   -0.35730E+00    16   0.180E+01    0.701E-01
DAV:   2    -0.194084145679E+02    0.10584E-01   -0.70190E-02    24   0.186E+00    0.328E-01
DAV:   3    -0.194075732938E+02    0.84127E-03   -0.21237E-03    16   0.393E-01    0.203E-01
DAV:   4    -0.194075395581E+02    0.33736E-04   -0.10865E-03    16   0.295E-01    0.388E-02
DAV:   5    -0.194075787535E+02   -0.39195E-04   -0.15885E-04    32   0.984E-02    0.167E-02
DAV:   6    -0.194075955986E+02   -0.16845E-04   -0.91979E-06    16   0.262E-02    0.766E-03
DAV:   7    -0.194076197830E+02   -0.24184E-04   -0.56491E-06    16   0.140E-02    0.281E-03
DAV:   8    -0.194076491240E+02   -0.29341E-04   -0.63268E-06    16   0.946E-03    0.238E-03
DAV:   9    -0.194076595322E+02   -0.10408E-04   -0.18514E-06    24   0.415E-03    0.178E-03
DAV:  10    -0.194076627085E+02   -0.31762E-05   -0.50137E-07    16   0.260E-03    0.190E-04
DAV:  11    -0.194076634014E+02   -0.69298E-06   -0.10170E-07    16   0.122E-03
   4 F= -.19407663E+02 E0= -.19411529E+02  d E =-.578507E-01
       N       E                     dE             d eps       ncg     rms          rms(c)
DAV:   1    -0.194162089147E+02   -0.85462E-02   -0.66877E-01    16   0.767E+00    0.181E-01
DAV:   2    -0.194157250901E+02    0.48382E-03   -0.52757E-03    16   0.581E-01    0.909E-02
DAV:   3    -0.194156586205E+02    0.66470E-04   -0.41484E-04    16   0.183E-01    0.525E-02
DAV:   4    -0.194156622768E+02   -0.36562E-05   -0.10790E-04    16   0.845E-02    0.213E-02
DAV:   5    -0.194156648210E+02   -0.25443E-05   -0.29334E-05    32   0.431E-02    0.613E-03
DAV:   6    -0.194156685442E+02   -0.37231E-05   -0.20327E-06    16   0.128E-02    0.330E-03
DAV:   7    -0.194156743639E+02   -0.58197E-05   -0.12514E-06    16   0.675E-03    0.154E-03
DAV:   8    -0.194156810255E+02   -0.66616E-05   -0.11314E-06    24   0.402E-03    0.146E-03
DAV:   9    -0.194156842443E+02   -0.32188E-05   -0.82382E-07    16   0.360E-03    0.720E-04
DAV:  10    -0.194156850315E+02   -0.78719E-06   -0.12088E-07    24   0.130E-03
   5 F= -.19415685E+02 E0= -.19419550E+02  d E =-.802163E-02
       N       E                     dE             d eps       ncg     rms          rms(c)
DAV:   1    -0.194373734684E+02   -0.21689E-01   -0.49394E+00    16   0.209E+01    0.405E-01
DAV:   2    -0.194359162481E+02    0.14572E-02   -0.24147E-02    16   0.137E+00    0.210E-01
DAV:   3    -0.194354318844E+02    0.48436E-03   -0.13941E-03    24   0.364E-01    0.986E-02
DAV:   4    -0.194354830510E+02   -0.51167E-04   -0.72284E-04    16   0.236E-01    0.242E-02
DAV:   5    -0.194355202212E+02   -0.37170E-04   -0.86483E-05    32   0.781E-02    0.142E-02
DAV:   6    -0.194355551814E+02   -0.34960E-04   -0.66214E-06    16   0.200E-02    0.633E-03
DAV:   7    -0.194355983586E+02   -0.43177E-04   -0.10329E-05    16   0.180E-02    0.311E-03
DAV:   8    -0.194356469299E+02   -0.48571E-04   -0.12026E-05    24   0.120E-02    0.261E-03
DAV:   9    -0.194356598301E+02   -0.12900E-04   -0.21581E-06    24   0.521E-03    0.146E-03
DAV:  10    -0.194356672253E+02   -0.73952E-05   -0.19738E-06    16   0.424E-03    0.396E-04
DAV:  11    -0.194356677809E+02   -0.55555E-06   -0.85372E-08    32   0.107E-03
   6 F= -.19435668E+02 E0= -.19439533E+02  d E =-.199827E-01
       N       E                     dE             d eps       ncg     rms          rms(c)
DAV:   1    -0.194719507926E+02   -0.36284E-01   -0.29346E+01    16   0.517E+01    0.982E-01
DAV:   2    -0.194770517737E+02   -0.51010E-02   -0.23701E-01    24   0.417E+00    0.543E-01
DAV:   3    -0.194734848172E+02    0.35670E-02   -0.99757E-03    24   0.739E-01    0.300E-01
DAV:   4    -0.194739829061E+02   -0.49809E-03   -0.76217E-03    16   0.736E-01    0.713E-02
DAV:   5    -0.194742497884E+02   -0.26688E-03   -0.20962E-03    16   0.353E-01    0.451E-02
DAV:   6    -0.194742910593E+02   -0.41271E-04   -0.77791E-05    24   0.772E-02    0.329E-02
DAV:   7    -0.194744557054E+02   -0.16465E-03   -0.28457E-05    16   0.326E-02    0.171E-02
DAV:   8    -0.194745736221E+02   -0.11792E-03   -0.48565E-05    24   0.409E-02    0.660E-03
DAV:   9    -0.194747485083E+02   -0.17489E-03   -0.57531E-05    16   0.279E-02    0.546E-03
DAV:  10    -0.194747725793E+02   -0.24071E-04   -0.38779E-06    32   0.986E-03    0.238E-03
DAV:  11    -0.194747898726E+02   -0.17293E-04   -0.50298E-06    16   0.732E-03    0.219E-03
DAV:  12    -0.194747906805E+02   -0.80786E-06   -0.10382E-07    32   0.159E-03
   7 F= -.19474791E+02 E0= -.19478656E+02  d E =-.391229E-01
       N       E                     dE             d eps       ncg     rms          rms(c)
DAV:   1    -0.194766757380E+02   -0.18859E-02   -0.16026E+01    16   0.393E+01    0.714E-01
DAV:   2    -0.194841572745E+02   -0.74815E-02   -0.14209E-01    16   0.322E+00    0.428E-01
DAV:   3    -0.194821844538E+02    0.19728E-02   -0.57889E-03    32   0.627E-01    0.246E-01
DAV:   4    -0.194823008645E+02   -0.11641E-03   -0.58340E-03    16   0.585E-01    0.739E-02
DAV:   5    -0.194823269710E+02   -0.26106E-04   -0.83521E-04    16   0.228E-01    0.273E-02
DAV:   6    -0.194824448457E+02   -0.11787E-03   -0.78942E-05    16   0.708E-02    0.135E-02
DAV:   7    -0.194827227311E+02   -0.27789E-03   -0.74212E-05    24   0.573E-02    0.126E-02
DAV:   8    -0.194827770194E+02   -0.54288E-04   -0.15155E-05    32   0.270E-02    0.615E-03
DAV:   9    -0.194829071464E+02   -0.13013E-03   -0.38706E-05    16   0.294E-02    0.169E-03
DAV:  10    -0.194829285465E+02   -0.21400E-04   -0.47282E-06    24   0.127E-02    0.340E-03
DAV:  11    -0.194829405902E+02   -0.12044E-04   -0.24822E-06    16   0.707E-03    0.966E-04
DAV:  12    -0.194829427961E+02   -0.22058E-05   -0.58530E-07    24   0.421E-03    0.729E-04
DAV:  13    -0.194829433061E+02   -0.51000E-06   -0.71761E-08    16   0.110E-03
   8 F= -.19482943E+02 E0= -.19486809E+02  d E =-.815263E-02
       N       E                     dE             d eps       ncg     rms          rms(c)
DAV:   1    -0.194204655748E+02    0.62477E-01   -0.19258E+01    16   0.439E+01    0.835E-01
DAV:   2    -0.194322547594E+02   -0.11789E-01   -0.20662E-01    24   0.376E+00    0.514E-01
DAV:   3    -0.194290365268E+02    0.32182E-02   -0.91691E-03    16   0.618E-01    0.304E-01
DAV:   4    -0.194293468471E+02   -0.31032E-03   -0.82478E-03    32   0.638E-01    0.994E-02
DAV:   5    -0.194293393994E+02    0.74477E-05   -0.15513E-03    16   0.282E-01    0.225E-02
DAV:   6    -0.194295004945E+02   -0.16110E-03   -0.36648E-05    32   0.539E-02    0.118E-02
DAV:   7    -0.194298211944E+02   -0.32070E-03   -0.64849E-05    16   0.507E-02    0.892E-03
DAV:   8    -0.194299675535E+02   -0.14636E-03   -0.26930E-05    24   0.299E-02    0.364E-03
DAV:   9    -0.194300597527E+02   -0.92199E-04   -0.17412E-05    16   0.200E-02    0.197E-03
DAV:  10    -0.194300911242E+02   -0.31372E-04   -0.50186E-06    24   0.969E-03    0.696E-04
DAV:  11    -0.194300990198E+02   -0.78955E-05   -0.12142E-06    16   0.392E-03    0.477E-04
DAV:  12    -0.194301004538E+02   -0.14340E-05   -0.20868E-07    24   0.181E-03    0.106E-04
DAV:  13    -0.194301006530E+02   -0.19918E-06   -0.18937E-08    16   0.709E-04
   9 F= -.19430101E+02 E0= -.19433966E+02  d E =0.528427E-01
       N       E                     dE             d eps       ncg     rms          rms(c)
DAV:   1    -0.194784169933E+02   -0.48317E-01   -0.16319E+01    16   0.392E+01    0.735E-01
DAV:   2    -0.194800163913E+02   -0.15994E-02   -0.84440E-02    24   0.277E+00    0.409E-01
DAV:   3    -0.194784642547E+02    0.15521E-02   -0.51915E-03    16   0.594E-01    0.152E-01
DAV:   4    -0.194785121946E+02   -0.47940E-04   -0.10325E-03    32   0.263E-01    0.432E-02
DAV:   5    -0.194786020778E+02   -0.89883E-04   -0.47641E-05    16   0.605E-02    0.158E-02
DAV:   6    -0.194787037795E+02   -0.10170E-03   -0.14690E-05    16   0.265E-02    0.460E-03
DAV:   7    -0.194788182217E+02   -0.11444E-03   -0.19671E-05    16   0.208E-02    0.367E-03
DAV:   8    -0.194788624482E+02   -0.44227E-04   -0.74643E-06    24   0.127E-02    0.176E-03
DAV:   9    -0.194788854359E+02   -0.22988E-04   -0.42710E-06    16   0.787E-03    0.887E-04
DAV:  10    -0.194788898368E+02   -0.44009E-05   -0.51604E-07    24   0.319E-03    0.425E-04
DAV:  11    -0.194788916196E+02   -0.17828E-05   -0.25866E-07    16   0.178E-03    0.137E-04
DAV:  12    -0.194788920187E+02   -0.39905E-06   -0.37067E-08    16   0.776E-04
  10 F= -.19478892E+02 E0= -.19482757E+02  d E =-.487914E-01
       N       E                     dE             d eps       ncg     rms          rms(c)
DAV:   1    -0.192094694798E+02    0.26942E+00   -0.14477E+02    16   0.114E+02    0.223E+00
DAV:   2    -0.193208708899E+02   -0.11140E+00   -0.15610E+00    16   0.112E+01    0.146E+00
DAV:   3    -0.192978035768E+02    0.23067E-01   -0.53101E-02    32   0.189E+00    0.920E-01
DAV:   4    -0.192942258397E+02    0.35777E-02   -0.50824E-02    16   0.183E+00    0.214E-01
DAV:   5    -0.192949390632E+02   -0.71322E-03   -0.46894E-03    32   0.578E-01    0.898E-02
DAV:   6    -0.192954097001E+02   -0.47064E-03   -0.16105E-04    16   0.977E-02    0.455E-02
DAV:   7    -0.192965274187E+02   -0.11177E-02   -0.44513E-04    16   0.141E-01    0.234E-02
DAV:   8    -0.192972900293E+02   -0.76261E-03   -0.29531E-04    16   0.877E-02    0.774E-03
DAV:   9    -0.192975244825E+02   -0.23445E-03   -0.60419E-05    16   0.339E-02    0.599E-03
DAV:  10    -0.192976562418E+02   -0.13176E-03   -0.40820E-05    24   0.247E-02    0.302E-03
DAV:  11    -0.192976752200E+02   -0.18978E-04   -0.35836E-06    16   0.736E-03    0.136E-03
DAV:  12    -0.192976874119E+02   -0.12192E-04   -0.33721E-06    24   0.618E-03    0.644E-04
DAV:  13    -0.192976881336E+02   -0.72170E-06   -0.40748E-08    24   0.114E-03
  11 F= -.19297688E+02 E0= -.19301553E+02  d E =0.181204E+00
       N       E                     dE             d eps       ncg     rms          rms(c)
DAV:   1    -0.194277988004E+02   -0.13011E+00   -0.87915E+01    16   0.913E+01    0.173E+00
DAV:   2    -0.195118362177E+02   -0.84037E-01   -0.13329E+00    24   0.977E+00    0.120E+00
DAV:   3    -0.194899849577E+02    0.21851E-01   -0.53457E-02    24   0.154E+00    0.707E-01
DAV:   4    -0.194900548259E+02   -0.69868E-04   -0.77500E-02    32   0.201E+00    0.284E-01
DAV:   5    -0.194889330318E+02    0.11218E-02   -0.11262E-02    16   0.775E-01    0.871E-02
DAV:   6    -0.194892595974E+02   -0.32657E-03   -0.36264E-04    32   0.159E-01    0.408E-02
DAV:   7    -0.194899643551E+02   -0.70476E-03   -0.35695E-04    24   0.134E-01    0.242E-02
DAV:   8    -0.194904157120E+02   -0.45136E-03   -0.12870E-04    32   0.688E-02    0.102E-02
DAV:   9    -0.194908725311E+02   -0.45682E-03   -0.13448E-04    16   0.530E-02    0.468E-03
DAV:  10    -0.194909772894E+02   -0.10476E-03   -0.20480E-05    24   0.200E-02    0.251E-03
DAV:  11    -0.194910252205E+02   -0.47931E-04   -0.12360E-05    16   0.124E-02    0.911E-04
DAV:  12    -0.194910316276E+02   -0.64071E-05   -0.11531E-06    32   0.362E-03    0.437E-04
DAV:  13    -0.194910326347E+02   -0.10071E-05   -0.15682E-07    16   0.166E-03    0.234E-04
DAV:  14    -0.194910328890E+02   -0.25422E-06   -0.26169E-08    16   0.734E-04
  12 F= -.19491033E+02 E0= -.19494898E+02  d E =-.193345E+00
       N       E                     dE             d eps       ncg     rms          rms(c)
DAV:   1    -0.194911557653E+02   -0.12313E-03   -0.10677E-01    16   0.315E+00    0.976E-02
DAV:   2    -0.194910439923E+02    0.11177E-03   -0.13405E-03    24   0.304E-01    0.514E-02
DAV:   3    -0.194910049274E+02    0.39065E-04   -0.17794E-04    16   0.119E-01    0.174E-02
DAV:   4    -0.194910069828E+02   -0.20554E-05   -0.26627E-05    16   0.446E-02    0.723E-03
DAV:   5    -0.194910080881E+02   -0.11052E-05   -0.20787E-06    16   0.129E-02    0.238E-03
DAV:   6    -0.194910083058E+02   -0.21771E-06   -0.60233E-07    16   0.742E-03
  13 F= -.19491008E+02 E0= -.19494874E+02  d E =0.245832E-04
       N       E                     dE             d eps       ncg     rms          rms(c)
DAV:   1    -0.194909571910E+02    0.50897E-04   -0.48278E-01    16   0.686E+00    0.117E-01
DAV:   2    -0.194910628553E+02   -0.10566E-03   -0.26623E-03    32   0.485E-01    0.726E-02
DAV:   3    -0.194910419664E+02    0.20889E-04   -0.23995E-04    16   0.113E-01    0.279E-02
DAV:   4    -0.194910500565E+02   -0.80901E-05   -0.31448E-05    24   0.490E-02    0.828E-03
DAV:   5    -0.194910550798E+02   -0.50233E-05   -0.94478E-06    16   0.223E-02    0.305E-03
DAV:   6    -0.194910668376E+02   -0.11758E-04   -0.25579E-06    16   0.105E-02    0.218E-03
DAV:   7    -0.194910719769E+02   -0.51393E-05   -0.10914E-06    24   0.602E-03    0.117E-03
DAV:   8    -0.194910791009E+02   -0.71240E-05   -0.94692E-07    16   0.393E-03    0.789E-04
DAV:   9    -0.194910816564E+02   -0.25556E-05   -0.37587E-07    24   0.289E-03    0.258E-04
DAV:  10    -0.194910829901E+02   -0.13337E-05   -0.22391E-07    16   0.178E-03    0.218E-04
DAV:  11    -0.194910830611E+02   -0.70991E-07   -0.60954E-09    32   0.406E-04
  14 F= -.19491083E+02 E0= -.19494948E+02  d E =-.747553E-04
       N       E                     dE             d eps       ncg     rms          rms(c)
DAV:   1    -0.194910490630E+02    0.33927E-04   -0.68196E-02    16   0.251E+00    0.590E-02
DAV:   2    -0.194910884596E+02   -0.39397E-04   -0.86040E-04    16   0.254E-01    0.303E-02
DAV:   3    -0.194910849342E+02    0.35254E-05   -0.26795E-05    16   0.525E-02    0.140E-02
DAV:   4    -0.194910871785E+02   -0.22443E-05   -0.10597E-05    24   0.287E-02    0.378E-03
DAV:   5    -0.194910875787E+02   -0.40022E-06   -0.71108E-07    16   0.768E-03
  15 F= -.19491088E+02 E0= -.19494953E+02  d E =-.451763E-05
       N       E                     dE             d eps       ncg     rms          rms(c)
DAV:   1    -0.194913908325E+02   -0.30365E-03   -0.59855E-01    16   0.742E+00    0.140E-01
DAV:   2    -0.194915188440E+02   -0.12801E-03   -0.38324E-03    24   0.579E-01    0.783E-02
DAV:   3    -0.194914851128E+02    0.33731E-04   -0.15251E-04    16   0.102E-01    0.369E-02
DAV:   4    -0.194915049071E+02   -0.19794E-04   -0.82637E-05    24   0.783E-02    0.696E-03
DAV:   5    -0.194915076248E+02   -0.27177E-05   -0.90308E-06    16   0.265E-02    0.358E-03
DAV:   6    -0.194915103094E+02   -0.26846E-05   -0.54018E-07    16   0.595E-03    0.155E-03
DAV:   7    -0.194915133364E+02   -0.30270E-05   -0.35949E-07    16   0.387E-03    0.599E-04
DAV:   8    -0.194915166323E+02   -0.32959E-05   -0.54342E-07    16   0.318E-03    0.616E-04
DAV:   9    -0.194915175428E+02   -0.91047E-06   -0.15110E-07    16   0.194E-03
  16 F= -.19491518E+02 E0= -.19495383E+02  d E =-.429964E-03
       N       E                     dE             d eps       ncg     rms          rms(c)
DAV:   1    -0.194905428560E+02    0.97378E-03   -0.61407E-01    16   0.766E+00    0.141E-01
DAV:   2    -0.194907788579E+02   -0.23600E-03   -0.48281E-03    16   0.622E-01    0.824E-02
DAV:   3    -0.194907111939E+02    0.67664E-04   -0.18394E-04    32   0.129E-01    0.392E-02
DAV:   4    -0.194907241898E+02   -0.12996E-04   -0.10804E-04    16   0.953E-02    0.794E-03
DAV:   5    -0.194907298598E+02   -0.56701E-05   -0.18817E-05    16   0.375E-02    0.429E-03
DAV:   6    -0.194907329123E+02   -0.30525E-05   -0.12067E-06    32   0.853E-03    0.253E-03
DAV:   7    -0.194907399394E+02   -0.70271E-05   -0.10477E-06    16   0.733E-03    0.791E-04
DAV:   8    -0.194907452291E+02   -0.52897E-05   -0.62369E-07    16   0.379E-03    0.748E-04
DAV:   9    -0.194907479996E+02   -0.27705E-05   -0.43176E-07    24   0.288E-03    0.250E-04
DAV:  10    -0.194907487975E+02   -0.79784E-06   -0.10012E-07    16   0.114E-03
  17 F= -.19490749E+02 E0= -.19494614E+02  d E =0.768745E-03
       N       E                     dE             d eps       ncg     rms          rms(c)
DAV:   1    -0.194908347466E+02   -0.86747E-04   -0.96159E-02    16   0.314E+00    0.614E-02
DAV:   2    -0.194908596567E+02   -0.24910E-04   -0.95635E-04    24   0.276E-01    0.403E-02
DAV:   3    -0.194908416689E+02    0.17988E-04   -0.68951E-05    16   0.764E-02    0.153E-02
DAV:   4    -0.194908441117E+02   -0.24428E-05   -0.18979E-05    24   0.384E-02    0.470E-03
DAV:   5    -0.194908452108E+02   -0.10991E-05   -0.12560E-06    16   0.985E-03    0.236E-03
DAV:   6    -0.194908471409E+02   -0.19301E-05   -0.28737E-07    16   0.413E-03    0.571E-04
DAV:   7    -0.194908488198E+02   -0.16789E-05   -0.13233E-07    24   0.228E-03    0.436E-04
DAV:   8    -0.194908505086E+02   -0.16888E-05   -0.19801E-07    16   0.176E-03    0.253E-04
DAV:   9    -0.194908508794E+02   -0.37080E-06   -0.40572E-08    24   0.914E-04
  18 F= -.19490851E+02 E0= -.19494716E+02  d E =-.102082E-03
       N       E                     dE             d eps       ncg     rms          rms(c)
DAV:   1    -0.194913914838E+02   -0.54098E-03   -0.80510E-01    16   0.860E+00    0.164E-01
DAV:   2    -0.194915548743E+02   -0.16339E-03   -0.48570E-03    16   0.653E-01    0.903E-02
DAV:   3    -0.194915157490E+02    0.39125E-04   -0.19028E-04    24   0.136E-01    0.371E-02
DAV:   4    -0.194915386955E+02   -0.22947E-04   -0.85230E-05    16   0.797E-02    0.645E-03
DAV:   5    -0.194915423575E+02   -0.36619E-05   -0.78436E-06    16   0.256E-02    0.308E-03
DAV:   6    -0.194915441001E+02   -0.17426E-05   -0.36452E-07    24   0.542E-03    0.180E-03
DAV:   7    -0.194915471072E+02   -0.30071E-05   -0.56496E-07    16   0.417E-03    0.823E-04
DAV:   8    -0.194915484577E+02   -0.13505E-05   -0.13111E-07    16   0.171E-03    0.574E-04
DAV:   9    -0.194915496458E+02   -0.11881E-05   -0.25910E-07    16   0.227E-03    0.630E-04
DAV:  10    -0.194915500251E+02   -0.37928E-06   -0.12482E-07    16   0.178E-03
  19 F= -.19491550E+02 E0= -.19495415E+02  d E =-.699146E-03
       N       E                     dE             d eps       ncg     rms          rms(c)
DAV:   1    -0.194895998243E+02    0.19498E-02   -0.24580E+00    16   0.151E+01    0.267E-01
DAV:   2    -0.194900137609E+02   -0.41394E-03   -0.12678E-02    24   0.107E+00    0.154E-01
DAV:   3    -0.194898370406E+02    0.17672E-03   -0.62604E-04    16   0.214E-01    0.619E-02
DAV:   4    -0.194898853828E+02   -0.48342E-04   -0.23882E-04    32   0.129E-01    0.139E-02
DAV:   5    -0.194899019817E+02   -0.16599E-04   -0.13185E-05    16   0.335E-02    0.625E-03
DAV:   6    -0.194899207875E+02   -0.18806E-04   -0.31512E-06    16   0.130E-02    0.211E-03
DAV:   7    -0.194899382179E+02   -0.17430E-04   -0.16694E-06    24   0.600E-03    0.150E-03
DAV:   8    -0.194899558063E+02   -0.17588E-04   -0.35289E-06    16   0.687E-03    0.714E-04
DAV:   9    -0.194899603154E+02   -0.45091E-05   -0.61731E-07    24   0.302E-03    0.365E-04
DAV:  10    -0.194899616681E+02   -0.13527E-05   -0.18560E-07    16   0.148E-03    0.256E-04
DAV:  11    -0.194899619668E+02   -0.29869E-06   -0.45491E-08    16   0.869E-04
  20 F= -.19489962E+02 E0= -.19493827E+02  d E =0.158806E-02
       N       E                     dE             d eps       ncg     rms          rms(c)
DAV:   1    -0.194913849431E+02   -0.14233E-02   -0.11403E+00    16   0.103E+01    0.190E-01
DAV:   2    -0.194915522368E+02   -0.16729E-03   -0.70888E-03    16   0.773E-01    0.104E-01
DAV:   3    -0.194914714188E+02    0.80818E-04   -0.23896E-04    24   0.149E-01    0.501E-02
DAV:   4    -0.194914968196E+02   -0.25401E-04   -0.17555E-04    16   0.116E-01    0.897E-03
DAV:   5    -0.194915097191E+02   -0.12899E-04   -0.33884E-05    16   0.489E-02    0.565E-03
DAV:   6    -0.194915119013E+02   -0.21822E-05   -0.26588E-06    24   0.129E-02    0.274E-03
DAV:   7    -0.194915233409E+02   -0.11440E-04   -0.15192E-06    16   0.691E-03    0.122E-03
DAV:   8    -0.194915280928E+02   -0.47520E-05   -0.38278E-07    24   0.289E-03    0.773E-04
DAV:   9    -0.194915350625E+02   -0.69697E-05   -0.14204E-06    16   0.436E-03    0.414E-04
DAV:  10    -0.194915362530E+02   -0.11905E-05   -0.16362E-07    24   0.158E-03    0.158E-04
DAV:  11    -0.194915365127E+02   -0.25964E-06   -0.32173E-08    16   0.597E-04
  21 F= -.19491537E+02 E0= -.19495402E+02  d E =-.157455E-02
