<?xml version="1.0" encoding="ISO-8859-1"?>
<modeling>
 <generator>
  <i name="program" type="string">vasp </i>
  <i name="version" type="string">5.4.1  </i>
  <i name="subversion" type="string">05Feb16 (build Oct 11 2016 12:26:42) complex                          parallel </i>
  <i name="platform" type="string">UNITY_VASP_5.4.1 </i>
  <i name="date" type="string">2018 01 25 </i>
  <i name="time" type="string">19:51:48 </i>
 </generator>
 <incar>
  <i type="string" name="PREC">a</i>
  <i type="string" name="ALGO"> V</i>
  <i name="ENCUT">    350.00000000</i>
  <i type="int" name="NEDOS">  1000</i>
  <i name="EMIN">    -10.00000000</i>
  <i name="EMAX">     10.00000000</i>
  <i type="int" name="ISMEAR">     0</i>
  <v type="int" name="KPOINT_BSE">    -1     0     0     0</v>
  <i type="logical" name="LEPSILON"> T  </i>
  <i type="logical" name="LRPA"> F  </i>
 </incar>
 <kpoints>
  <generation param="Gamma">
   <v type="int" name="divisions">       7        7        7 </v>
   <v name="usershift">      0.00000000       0.00000000       0.00000000 </v>
   <v name="genvec1">      0.14285714       0.00000000       0.00000000 </v>
   <v name="genvec2">      0.00000000       0.14285714       0.00000000 </v>
   <v name="genvec3">      0.00000000       0.00000000       0.14285714 </v>
   <v name="shift">      0.00000000       0.00000000       0.00000000 </v>
  </generation>
  <varray name="kpointlist" >
   <v>       0.00000000       0.00000000       0.00000000 </v>
   <v>       0.14285714       0.00000000       0.00000000 </v>
   <v>       0.28571429       0.00000000       0.00000000 </v>
   <v>       0.42857143       0.00000000       0.00000000 </v>
   <v>       0.00000000       0.14285714       0.00000000 </v>
   <v>       0.14285714       0.14285714       0.00000000 </v>
   <v>       0.28571429       0.14285714       0.00000000 </v>
   <v>       0.42857143       0.14285714       0.00000000 </v>
   <v>       0.00000000       0.28571429       0.00000000 </v>
   <v>       0.14285714       0.28571429       0.00000000 </v>
   <v>       0.28571429       0.28571429       0.00000000 </v>
   <v>       0.42857143       0.28571429       0.00000000 </v>
   <v>       0.00000000       0.42857143       0.00000000 </v>
   <v>       0.14285714       0.42857143       0.00000000 </v>
   <v>       0.28571429       0.42857143       0.00000000 </v>
   <v>       0.42857143       0.42857143       0.00000000 </v>
   <v>       0.00000000       0.14285714       0.14285714 </v>
   <v>       0.14285714       0.14285714       0.14285714 </v>
   <v>       0.28571429       0.14285714       0.14285714 </v>
   <v>       0.42857143       0.14285714       0.14285714 </v>
   <v>       0.00000000       0.28571429       0.14285714 </v>
   <v>       0.14285714       0.28571429       0.14285714 </v>
   <v>       0.28571429       0.28571429       0.14285714 </v>
   <v>       0.42857143       0.28571429       0.14285714 </v>
   <v>       0.00000000       0.42857143       0.14285714 </v>
   <v>       0.14285714       0.42857143       0.14285714 </v>
   <v>       0.28571429       0.42857143       0.14285714 </v>
   <v>       0.42857143       0.42857143       0.14285714 </v>
   <v>       0.00000000      -0.42857143       0.14285714 </v>
   <v>       0.14285714      -0.42857143       0.14285714 </v>
   <v>       0.28571429      -0.42857143       0.14285714 </v>
   <v>       0.42857143      -0.42857143       0.14285714 </v>
   <v>       0.00000000      -0.28571429       0.14285714 </v>
   <v>       0.14285714      -0.28571429       0.14285714 </v>
   <v>       0.28571429      -0.28571429       0.14285714 </v>
   <v>       0.42857143      -0.28571429       0.14285714 </v>
   <v>       0.00000000      -0.14285714       0.14285714 </v>
   <v>       0.14285714      -0.14285714       0.14285714 </v>
   <v>       0.28571429      -0.14285714       0.14285714 </v>
   <v>       0.42857143      -0.14285714       0.14285714 </v>
   <v>       0.00000000       0.28571429       0.28571429 </v>
   <v>       0.14285714       0.28571429       0.28571429 </v>
   <v>       0.28571429       0.28571429       0.28571429 </v>
   <v>       0.42857143       0.28571429       0.28571429 </v>
   <v>       0.00000000       0.42857143       0.28571429 </v>
   <v>       0.14285714       0.42857143       0.28571429 </v>
   <v>       0.28571429       0.42857143       0.28571429 </v>
   <v>       0.42857143       0.42857143       0.28571429 </v>
   <v>       0.00000000      -0.42857143       0.28571429 </v>
   <v>       0.14285714      -0.42857143       0.28571429 </v>
   <v>       0.28571429      -0.42857143       0.28571429 </v>
   <v>       0.42857143      -0.42857143       0.28571429 </v>
   <v>       0.00000000      -0.28571429       0.28571429 </v>
   <v>       0.14285714      -0.28571429       0.28571429 </v>
   <v>       0.28571429      -0.28571429       0.28571429 </v>
   <v>       0.42857143      -0.28571429       0.28571429 </v>
   <v>       0.00000000       0.42857143       0.42857143 </v>
   <v>       0.14285714       0.42857143       0.42857143 </v>
   <v>       0.28571429       0.42857143       0.42857143 </v>
   <v>       0.42857143       0.42857143       0.42857143 </v>
   <v>       0.00000000      -0.42857143       0.42857143 </v>
   <v>       0.14285714      -0.42857143       0.42857143 </v>
   <v>       0.28571429      -0.42857143       0.42857143 </v>
   <v>       0.42857143      -0.42857143       0.42857143 </v>
  </varray>
  <varray name="weights" >
   <v>       0.00291545 </v>
   <v>       0.00583090 </v>
   <v>       0.00583090 </v>
   <v>       0.00583090 </v>
   <v>       0.01166181 </v>
   <v>       0.02332362 </v>
   <v>       0.02332362 </v>
   <v>       0.02332362 </v>
   <v>       0.01166181 </v>
   <v>       0.02332362 </v>
   <v>       0.02332362 </v>
   <v>       0.02332362 </v>
   <v>       0.01166181 </v>
   <v>       0.02332362 </v>
   <v>       0.02332362 </v>
   <v>       0.02332362 </v>
   <v>       0.00583090 </v>
   <v>       0.01166181 </v>
   <v>       0.01166181 </v>
   <v>       0.01166181 </v>
   <v>       0.01166181 </v>
   <v>       0.02332362 </v>
   <v>       0.02332362 </v>
   <v>       0.02332362 </v>
   <v>       0.01166181 </v>
   <v>       0.02332362 </v>
   <v>       0.02332362 </v>
   <v>       0.02332362 </v>
   <v>       0.01166181 </v>
   <v>       0.02332362 </v>
   <v>       0.02332362 </v>
   <v>       0.02332362 </v>
   <v>       0.01166181 </v>
   <v>       0.02332362 </v>
   <v>       0.02332362 </v>
   <v>       0.02332362 </v>
   <v>       0.00583090 </v>
   <v>       0.01166181 </v>
   <v>       0.01166181 </v>
   <v>       0.01166181 </v>
   <v>       0.00583090 </v>
   <v>       0.01166181 </v>
   <v>       0.01166181 </v>
   <v>       0.01166181 </v>
   <v>       0.01166181 </v>
   <v>       0.02332362 </v>
   <v>       0.02332362 </v>
   <v>       0.02332362 </v>
   <v>       0.01166181 </v>
   <v>       0.02332362 </v>
   <v>       0.02332362 </v>
   <v>       0.02332362 </v>
   <v>       0.00583090 </v>
   <v>       0.01166181 </v>
   <v>       0.01166181 </v>
   <v>       0.01166181 </v>
   <v>       0.00583090 </v>
   <v>       0.01166181 </v>
   <v>       0.01166181 </v>
   <v>       0.01166181 </v>
   <v>       0.00583090 </v>
   <v>       0.01166181 </v>
   <v>       0.01166181 </v>
   <v>       0.01166181 </v>
  </varray>
 </kpoints>
 <parameters>
  <separator name="general" >
   <i type="string" name="SYSTEM">unknown system</i>
   <i type="logical" name="LCOMPAT"> F  </i>
  </separator>
  <separator name="electronic" >
   <i type="string" name="PREC">a</i>
   <i name="ENMAX">    350.00000000</i>
   <i name="ENAUG">    322.06900000</i>
   <i name="EDIFF">      0.00000100</i>
   <i type="int" name="IALGO">    48</i>
   <i type="int" name="IWAVPR">    10</i>
   <i type="int" name="NBANDS">    30</i>
   <i name="NELECT">     32.00000000</i>
   <i type="int" name="TURBO">     0</i>
   <i type="int" name="IRESTART">     0</i>
   <i type="int" name="NREBOOT">     0</i>
   <i type="int" name="NMIN">     0</i>
   <i name="EREF">      0.00000000</i>
   <separator name="electronic smearing" >
    <i type="int" name="ISMEAR">     0</i>
    <i name="SIGMA">      0.20000000</i>
    <i name="KSPACING">      0.50000000</i>
    <i type="logical" name="KGAMMA"> T  </i>
   </separator>
   <separator name="electronic projectors" >
    <i type="logical" name="LREAL"> F  </i>
    <v name="ROPT">      0.00000000</v>
    <i type="int" name="LMAXPAW">  -100</i>
    <i type="int" name="LMAXMIX">     2</i>
    <i type="logical" name="NLSPLINE"> F  </i>
   </separator>
   <separator name="electronic startup" >
    <i type="int" name="ISTART">     0</i>
    <i type="int" name="ICHARG">     2</i>
    <i type="int" name="INIWAV">     1</i>
   </separator>
   <separator name="electronic spin" >
    <i type="int" name="ISPIN">     1</i>
    <i type="logical" name="LNONCOLLINEAR"> F  </i>
    <v name="MAGMOM">      1.00000000      1.00000000      1.00000000      1.00000000      1.00000000      1.00000000      1.00000000      1.00000000</v>
    <i name="NUPDOWN">     -1.00000000</i>
    <i type="logical" name="LSORBIT"> F  </i>
    <v name="SAXIS">      0.00000000      0.00000000      1.00000000</v>
    <i type="logical" name="LSPIRAL"> F  </i>
    <v name="QSPIRAL">      0.00000000      0.00000000      0.00000000</v>
    <i type="logical" name="LZEROZ"> F  </i>
   </separator>
   <separator name="electronic exchange-correlation" >
    <i type="logical" name="LASPH"> F  </i>
    <i type="logical" name="LMETAGGA"> F  </i>
   </separator>
   <separator name="electronic convergence" >
    <i type="int" name="NELM">    60</i>
    <i type="int" name="NELMDL">   -12</i>
    <i type="int" name="NELMIN">     2</i>
    <i name="ENINI">    350.00000000</i>
    <separator name="electronic convergence detail" >
     <i type="logical" name="LDIAG"> T  </i>
     <i type="logical" name="LSUBROT"> F  </i>
     <i name="WEIMIN">      0.00000000</i>
     <i name="EBREAK">      0.00000001</i>
     <i name="DEPER">      0.30000000</i>
     <i type="int" name="NRMM">     4</i>
     <i name="TIME">      0.40000000</i>
    </separator>
   </separator>
   <separator name="electronic mixer" >
    <i name="AMIX">      0.40000000</i>
    <i name="BMIX">      1.00000000</i>
    <i name="AMIN">      0.10000000</i>
    <i name="AMIX_MAG">      1.60000000</i>
    <i name="BMIX_MAG">      1.00000000</i>
    <separator name="electronic mixer details" >
     <i type="int" name="IMIX">     4</i>
     <i type="logical" name="MIXFIRST"> F  </i>
     <i type="int" name="MAXMIX">   -45</i>
     <i name="WC">    100.00000000</i>
     <i type="int" name="INIMIX">     1</i>
     <i type="int" name="MIXPRE">     1</i>
     <i type="int" name="MREMOVE">     5</i>
    </separator>
   </separator>
   <separator name="electronic dipolcorrection" >
    <i type="logical" name="LDIPOL"> F  </i>
    <i type="logical" name="LMONO"> F  </i>
    <i type="int" name="IDIPOL">     0</i>
    <i name="EPSILON">      1.00000000</i>
    <v name="DIPOL">   -100.00000000   -100.00000000   -100.00000000</v>
    <i name="EFIELD">      0.00000000</i>
   </separator>
  </separator>
  <separator name="grids" >
   <i type="int" name="NGX">    36</i>
   <i type="int" name="NGY">    36</i>
   <i type="int" name="NGZ">    36</i>
   <i type="int" name="NGXF">    72</i>
   <i type="int" name="NGYF">    72</i>
   <i type="int" name="NGZF">    72</i>
   <i type="logical" name="ADDGRID"> F  </i>
  </separator>
  <separator name="ionic" >
   <i type="int" name="NSW">     0</i>
   <i type="int" name="IBRION">    -1</i>
   <i type="int" name="ISIF">     2</i>
   <i name="PSTRESS">      0.00000000</i>
   <i name="EDIFFG">      0.00100000</i>
   <i type="int" name="NFREE">     0</i>
   <i name="POTIM">      0.50000000</i>
   <i name="SMASS">     -3.00000000</i>
   <i name="SCALEE">      1.00000000</i>
  </separator>
  <separator name="ionic md" >
   <i name="TEBEG">      0.00010000</i>
   <i name="TEEND">      0.00010000</i>
   <i type="int" name="NBLOCK">     1</i>
   <i type="int" name="KBLOCK">     1</i>
   <i type="int" name="NPACO">   256</i>
   <i name="APACO">     16.00000000</i>
  </separator>
  <separator name="symmetry" >
   <i type="int" name="ISYM">     2</i>
   <i name="SYMPREC">      0.00001000</i>
  </separator>
  <separator name="dos" >
   <i type="logical" name="LORBIT"> F  </i>
   <v name="RWIGS">     -1.00000000</v>
   <i type="int" name="NEDOS">  1000</i>
   <i name="EMIN">    -10.00000000</i>
   <i name="EMAX">     10.00000000</i>
   <i name="EFERMI">      0.00000000</i>
  </separator>
  <separator name="writing" >
   <i type="int" name="NWRITE">     2</i>
   <i type="logical" name="LWAVE"> T  </i>
   <i type="logical" name="LCHARG"> T  </i>
   <i type="logical" name="LPARD"> F  </i>
   <i type="logical" name="LVTOT"> F  </i>
   <i type="logical" name="LVHAR"> F  </i>
   <i type="logical" name="LELF"> F  </i>
   <i type="logical" name="LOPTICS"> F  </i>
   <v name="STM">      0.00000000      0.00000000      0.00000000      0.00000000      0.00000000      0.00000000      0.00000000</v>
  </separator>
  <separator name="performance" >
   <i type="int" name="NPAR">    10</i>
   <i type="int" name="NSIM">     4</i>
   <i type="int" name="NBLK">    -1</i>
   <i type="logical" name="LPLANE"> T  </i>
   <i type="logical" name="LSCALAPACK"> T  </i>
   <i type="logical" name="LSCAAWARE"> F  </i>
   <i type="logical" name="LSCALU"> F  </i>
   <i type="logical" name="LASYNC"> F  </i>
   <i type="logical" name="LORBITALREAL"> F  </i>
  </separator>
  <separator name="miscellaneous" >
   <i type="int" name="IDIOT">     3</i>
   <i type="logical" name="LMUSIC"> F  </i>
   <v name="POMASS">     28.08500000</v>
   <v name="DARWINR">      0.00000000</v>
   <v name="DARWINV">      1.00000000</v>
   <i type="logical" name="LCORR"> T  </i>
  </separator>
  <i type="logical" name="GGA_COMPAT"> T  </i>
  <i type="logical" name="LBERRY"> F  </i>
  <i type="int" name="ICORELEVEL">     0</i>
  <i type="logical" name="LDAU"> F  </i>
  <i type="int" name="I_CONSTRAINED_M">     0</i>
  <separator name="electronic exchange-correlation" >
   <i type="string" name="GGA">--</i>
   <i type="int" name="VOSKOWN">     0</i>
   <i type="logical" name="LHFCALC"> F  </i>
   <i type="string" name="PRECFOCK"></i>
   <i type="logical" name="LSYMGRAD"> F  </i>
   <i type="logical" name="LHFONE"> F  </i>
   <i type="logical" name="LRHFCALC"> F  </i>
   <i type="logical" name="LTHOMAS"> F  </i>
   <i type="logical" name="LMODELHF"> F  </i>
   <i name="ENCUT4O">     -1.00000000</i>
   <i type="int" name="EXXOEP">     0</i>
   <i type="int" name="FOURORBIT">     0</i>
   <i name="AEXX">      0.00000000</i>
   <i name="HFALPHA">      0.00000000</i>
   <i name="MCALPHA">      0.00000000</i>
   <i name="ALDAX">      1.00000000</i>
   <i name="AGGAX">      1.00000000</i>
   <i name="ALDAC">      1.00000000</i>
   <i name="AGGAC">      1.00000000</i>
   <i type="int" name="NKREDX">     1</i>
   <i type="int" name="NKREDY">     1</i>
   <i type="int" name="NKREDZ">     1</i>
   <i type="logical" name="SHIFTRED"> F  </i>
   <i type="logical" name="ODDONLY"> F  </i>
   <i type="logical" name="EVENONLY"> F  </i>
   <i type="int" name="LMAXFOCK">     0</i>
   <i type="int" name="NMAXFOCKAE">     0</i>
   <i type="logical" name="LFOCKAEDFT"> F  </i>
   <i name="HFSCREEN">      0.00000000</i>
   <i name="HFSCREENC">      0.00000000</i>
   <i type="int" name="NBANDSGWLOW">     0</i>
  </separator>
  <separator name="vdW DFT" >
   <i type="logical" name="LUSE_VDW"> F  </i>
   <i name="Zab_VDW">     -0.84910000</i>
   <i name="PARAM1">      0.12340000</i>
   <i name="PARAM2">      1.00000000</i>
   <i name="PARAM3">      0.00000000</i>
  </separator>
  <separator name="model GW" >
   <i type="int" name="MODEL_GW">     0</i>
   <i name="MODEL_EPS0">     12.24162890</i>
   <i name="MODEL_ALPHA">      1.00000000</i>
  </separator>
  <separator name="linear response parameters" >
   <i type="logical" name="LEPSILON"> T  </i>
   <i type="logical" name="LRPA"> F  </i>
   <i type="logical" name="LNABLA"> F  </i>
   <i type="logical" name="LVEL"> F  </i>
   <i type="int" name="KINTER">******</i>
   <i name="CSHIFT">      0.10000000</i>
   <i name="OMEGAMAX">     -1.00000000</i>
   <i name="DEG_THRESHOLD">      0.00200000</i>
  </separator>
  <separator name="orbital magnetization" >
   <i type="logical" name="NUCIND"> F  </i>
   <v name="MAGPOS">      0.00000000      0.00000000      0.00000000</v>
   <i type="logical" name="LNICSALL"> T  </i>
   <i type="logical" name="ORBITALMAG"> F  </i>
   <i type="logical" name="LMAGBLOCH"> F  </i>
   <i type="logical" name="LCHIMAG"> F  </i>
   <i type="logical" name="LGAUGE"> T  </i>
   <i type="int" name="MAGATOM">     0</i>
   <v name="MAGDIPOL">      0.00000000      0.00000000      0.00000000</v>
   <v name="AVECCONST">      0.00000000      0.00000000      0.00000000</v>
  </separator>
  <separator name="response functions" >
   <i type="logical" name="LADDER"> T  </i>
   <i type="logical" name="LFXC"> F  </i>
   <i type="logical" name="LHARTREE"> T  </i>
   <i type="int" name="IBSE">     0</i>
   <v type="int" name="KPOINT">    -1     0     0     0</v>
   <i type="logical" name="LTCTE"> F  </i>
   <i type="logical" name="LTETE"> F  </i>
   <i type="logical" name="LTRIPLET"> F  </i>
   <i type="logical" name="LFXCEPS"> F  </i>
   <i type="logical" name="LFXHEG"> F  </i>
   <i type="int" name="NATURALO">     0</i>
   <i type="logical" name="L2ORDER"> F  </i>
   <i type="logical" name="LUSEW"> F  </i>
   <i name="ENCUTGW">     -2.00000000</i>
   <i name="ENCUTGWSOFT">     -2.00000000</i>
   <i name="ENCUTLF">     -1.00000000</i>
   <i type="int" name="LMAXMP2">    -1</i>
   <i name="SCISSOR">      0.00000000</i>
   <i type="int" name="NOMEGA">     0</i>
   <i type="int" name="NOMEGAR">     0</i>
   <i type="int" name="NBANDSGW">    -1</i>
   <i type="int" name="NBANDSO">    -1</i>
   <i type="int" name="NBANDSV">    -1</i>
   <i type="int" name="NELM">     1</i>
   <i type="int" name="NELMHF">     1</i>
   <i type="int" name="DIM">     3</i>
   <i type="int" name="ANTIRES">     0</i>
   <i name="OMEGAMAX">    -30.00000000</i>
   <i name="OMEGAMIN">    -30.00000000</i>
   <i name="OMEGATL">   -200.00000000</i>
   <i type="int" name="OMEGAGRID">     0</i>
   <i name="CSHIFT">     -0.10000000</i>
   <i type="logical" name="SELFENERGY"> F  </i>
   <i type="logical" name="LSPECTRAL"> F  </i>
   <i type="logical" name="LSPECTRALGW"> F  </i>
   <i type="logical" name="LSINGLES"> F  </i>
   <i type="logical" name="LFERMIGW"> F  </i>
   <i type="logical" name="ODDONLYGW"> F  </i>
   <i type="logical" name="EVENONLYGW"> F  </i>
   <i type="int" name="NKREDLFX">     1</i>
   <i type="int" name="NKREDLFY">     1</i>
   <i type="int" name="NKREDLFZ">     1</i>
   <i type="int" name="MAXMEM">  1800</i>
   <i type="int" name="TELESCOPE">     0</i>
   <i type="int" name="TAUPAR">     1</i>
   <i type="int" name="OMEGAPAR">    -1</i>
   <i name="LAMBDA">      1.00000000</i>
  </separator>
  <separator name="External order field" >
   <i name="OFIELD_KAPPA">      0.00000000</i>
   <v name="OFIELD_K">      0.00000000      0.00000000      0.00000000</v>
   <i name="OFIELD_Q6_NEAR">      0.00000000</i>
   <i name="OFIELD_Q6_FAR">      0.00000000</i>
   <i name="OFIELD_A">      0.00000000</i>
  </separator>
 </parameters>
 <atominfo>
  <atoms>       8 </atoms>
  <types>       1 </types>
  <array name="atoms" >
   <dimension dim="1">ion</dimension>
   <field type="string">element</field>
   <field type="int">atomtype</field>
   <set>
    <rc><c>Si</c><c>   1</c></rc>
    <rc><c>Si</c><c>   1</c></rc>
    <rc><c>Si</c><c>   1</c></rc>
    <rc><c>Si</c><c>   1</c></rc>
    <rc><c>Si</c><c>   1</c></rc>
    <rc><c>Si</c><c>   1</c></rc>
    <rc><c>Si</c><c>   1</c></rc>
    <rc><c>Si</c><c>   1</c></rc>
   </set>
  </array>
  <array name="atomtypes" >
   <dimension dim="1">type</dimension>
   <field type="int">atomspertype</field>
   <field type="string">element</field>
   <field>mass</field>
   <field>valence</field>
   <field type="string">pseudopotential</field>
   <set>
    <rc><c>   8</c><c>Si</c><c>     28.08500000</c><c>      4.00000000</c><c> PAW_PBE Si 05Jan2001                   </c></rc>
   </set>
  </array>
 </atominfo>
 <structure name="initialpos" >
  <crystal>
   <varray name="basis" >
    <v>       5.46503124       0.00000000       0.00000000 </v>
    <v>       0.00000000       5.46503124       0.00000000 </v>
    <v>       0.00000000       0.00000000       5.46503124 </v>
   </varray>
   <i name="volume">    163.22171868 </i>
   <varray name="rec_basis" >
    <v>       0.18298157       0.00000000       0.00000000 </v>
    <v>       0.00000000       0.18298157       0.00000000 </v>
    <v>       0.00000000       0.00000000       0.18298157 </v>
   </varray>
  </crystal>
  <varray name="positions" >
   <v>       0.00000000       0.00000000       0.00000000 </v>
   <v>       0.00000000       0.50000000       0.50000000 </v>
   <v>       0.45000000       0.50000000       0.00000000 </v>
   <v>       0.50000000       0.00000000       0.50000000 </v>
   <v>       0.75000000       0.25000000       0.75000000 </v>
   <v>       0.25000000       0.25000000       0.25000000 </v>
   <v>       0.25000000       0.75000000       0.75000000 </v>
   <v>       0.75000000       0.75000000       0.25000000 </v>
  </varray>
 </structure>
 <calculation>
  <scstep>
   <time name="diag">    0.39    0.39</time>
   <time name="diis">    0.54    0.54</time>
   <time name="orth">    0.12    0.12</time>
   <time name="total">    1.08    1.09</time>
   <energy>
    <i name="alphaZ">     13.19945063 </i>
    <i name="ewald">   -906.87732482 </i>
    <i name="hartreedc">    -45.91134206 </i>
    <i name="XCdc">    -74.69017088 </i>
    <i name="pawpsdc">    263.82083246 </i>
    <i name="pawaedc">   -123.07410713 </i>
    <i name="eentropy">     -0.03270704 </i>
    <i name="bandstr">    151.29256328 </i>
    <i name="atom">    824.52501657 </i>
    <i name="e_fr_energy">    102.25221102 </i>
    <i name="e_wo_entrp">    102.28491806 </i>
    <i name="e_0_energy">    102.26856454 </i>
   </energy>
  </scstep>
  <scstep>
   <time name="diag">    0.40    0.40</time>
   <time name="diis">    0.54    0.54</time>
   <time name="orth">    0.12    0.12</time>
   <time name="total">    1.06    1.07</time>
   <energy>
    <i name="e_fr_energy">     -9.46659959 </i>
    <i name="e_wo_entrp">     -9.42633240 </i>
    <i name="e_0_energy">     -9.44646599 </i>
   </energy>
  </scstep>
  <scstep>
   <time name="diag">    0.38    0.38</time>
   <time name="diis">    0.53    0.53</time>
   <time name="orth">    0.12    0.12</time>
   <time name="total">    1.03    1.04</time>
   <energy>
    <i name="e_fr_energy">    -34.41348482 </i>
    <i name="e_wo_entrp">    -34.37804071 </i>
    <i name="e_0_energy">    -34.39576276 </i>
   </energy>
  </scstep>
  <scstep>
   <time name="diag">    0.38    0.38</time>
   <time name="diis">    0.53    0.53</time>
   <time name="orth">    0.12    0.12</time>
   <time name="total">    1.04    1.04</time>
   <energy>
    <i name="e_fr_energy">    -41.53381183 </i>
    <i name="e_wo_entrp">    -41.52761664 </i>
    <i name="e_0_energy">    -41.53071424 </i>
   </energy>
  </scstep>
  <scstep>
   <time name="diag">    0.38    0.38</time>
   <time name="diis">    0.53    0.53</time>
   <time name="orth">    0.12    0.12</time>
   <time name="total">    1.03    1.04</time>
   <energy>
    <i name="e_fr_energy">    -43.05161224 </i>
    <i name="e_wo_entrp">    -43.05058336 </i>
    <i name="e_0_energy">    -43.05109780 </i>
   </energy>
  </scstep>
  <scstep>
   <time name="diag">    0.38    0.38</time>
   <time name="diis">    0.53    0.53</time>
   <time name="orth">    0.12    0.12</time>
   <time name="total">    1.03    1.04</time>
   <energy>
    <i name="e_fr_energy">    -43.45627774 </i>
    <i name="e_wo_entrp">    -43.45548830 </i>
    <i name="e_0_energy">    -43.45588302 </i>
   </energy>
  </scstep>
  <scstep>
   <time name="diag">    0.38    0.38</time>
   <time name="diis">    0.53    0.53</time>
   <time name="orth">    0.12    0.12</time>
   <time name="total">    1.04    1.04</time>
   <energy>
    <i name="e_fr_energy">    -43.57037171 </i>
    <i name="e_wo_entrp">    -43.56961825 </i>
    <i name="e_0_energy">    -43.56999498 </i>
   </energy>
  </scstep>
  <scstep>
   <time name="diag">    0.38    0.38</time>
   <time name="diis">    0.53    0.53</time>
   <time name="orth">    0.12    0.12</time>
   <time name="total">    1.03    1.04</time>
   <energy>
    <i name="e_fr_energy">    -43.60459610 </i>
    <i name="e_wo_entrp">    -43.60385329 </i>
    <i name="e_0_energy">    -43.60422469 </i>
   </energy>
  </scstep>
  <scstep>
   <time name="diag">    0.38    0.38</time>
   <time name="diis">    1.29    1.29</time>
   <time name="orth">    0.12    0.12</time>
   <time name="total">    1.79    1.80</time>
   <energy>
    <i name="e_fr_energy">    -43.61749752 </i>
    <i name="e_wo_entrp">    -43.61675753 </i>
    <i name="e_0_energy">    -43.61712752 </i>
   </energy>
  </scstep>
  <scstep>
   <time name="diag">    0.38    0.38</time>
   <time name="diis">    1.30    1.30</time>
   <time name="orth">    0.12    0.12</time>
   <time name="total">    1.80    1.80</time>
   <energy>
    <i name="e_fr_energy">    -43.61907862 </i>
    <i name="e_wo_entrp">    -43.61833873 </i>
    <i name="e_0_energy">    -43.61870868 </i>
   </energy>
  </scstep>
  <scstep>
   <time name="diag">    0.38    0.38</time>
   <time name="diis">    1.30    1.30</time>
   <time name="orth">    0.12    0.12</time>
   <time name="total">    1.81    1.81</time>
   <energy>
    <i name="e_fr_energy">    -43.61916352 </i>
    <i name="e_wo_entrp">    -43.61842365 </i>
    <i name="e_0_energy">    -43.61879358 </i>
   </energy>
  </scstep>
  <scstep>
   <time name="diag">    0.38    0.38</time>
   <time name="diis">    1.28    1.28</time>
   <time name="orth">    0.12    0.12</time>
   <time name="total">    1.87    1.88</time>
   <energy>
    <i name="e_fr_energy">    -43.61917227 </i>
    <i name="e_wo_entrp">    -43.61843239 </i>
    <i name="e_0_energy">    -43.61880233 </i>
   </energy>
  </scstep>
  <scstep>
   <time name="diag">    0.38    0.38</time>
   <time name="diis">    1.19    1.19</time>
   <time name="orth">    0.12    0.12</time>
   <time name="total">    1.80    1.81</time>
   <energy>
    <i name="e_fr_energy">    -43.12670176 </i>
    <i name="e_wo_entrp">    -43.12534092 </i>
    <i name="e_0_energy">    -43.12602134 </i>
   </energy>
  </scstep>
  <scstep>
   <time name="diag">    0.38    0.38</time>
   <time name="diis">    1.17    1.17</time>
   <time name="orth">    0.12    0.12</time>
   <time name="total">    1.79    1.79</time>
   <energy>
    <i name="e_fr_energy">    -42.90796621 </i>
    <i name="e_wo_entrp">    -42.90541192 </i>
    <i name="e_0_energy">    -42.90668907 </i>
   </energy>
  </scstep>
  <scstep>
   <time name="diag">    0.38    0.38</time>
   <time name="diis">    1.21    1.21</time>
   <time name="orth">    0.12    0.12</time>
   <time name="total">    1.83    1.83</time>
   <energy>
    <i name="e_fr_energy">    -42.91127855 </i>
    <i name="e_wo_entrp">    -42.90884992 </i>
    <i name="e_0_energy">    -42.91006423 </i>
   </energy>
  </scstep>
  <scstep>
   <time name="diag">    0.38    0.38</time>
   <time name="diis">    1.20    1.20</time>
   <time name="orth">    0.12    0.12</time>
   <time name="total">    1.82    1.82</time>
   <energy>
    <i name="e_fr_energy">    -42.91220258 </i>
    <i name="e_wo_entrp">    -42.90981879 </i>
    <i name="e_0_energy">    -42.91101069 </i>
   </energy>
  </scstep>
  <scstep>
   <time name="diag">    0.38    0.38</time>
   <time name="diis">    1.25    1.25</time>
   <time name="orth">    0.12    0.12</time>
   <time name="total">    1.86    1.87</time>
   <energy>
    <i name="e_fr_energy">    -42.91229272 </i>
    <i name="e_wo_entrp">    -42.90991887 </i>
    <i name="e_0_energy">    -42.91110580 </i>
   </energy>
  </scstep>
  <scstep>
   <time name="diag">    0.38    0.38</time>
   <time name="diis">    1.19    1.19</time>
   <time name="orth">    0.12    0.12</time>
   <time name="total">    1.81    1.81</time>
   <energy>
    <i name="e_fr_energy">    -42.91231871 </i>
    <i name="e_wo_entrp">    -42.90995066 </i>
    <i name="e_0_energy">    -42.91113469 </i>
   </energy>
  </scstep>
  <scstep>
   <time name="diag">    0.38    0.38</time>
   <time name="diis">    1.27    1.27</time>
   <time name="orth">    0.12    0.12</time>
   <time name="total">    1.89    1.89</time>
   <energy>
    <i name="e_fr_energy">    -42.91232202 </i>
    <i name="e_wo_entrp">    -42.90995236 </i>
    <i name="e_0_energy">    -42.91113719 </i>
   </energy>
  </scstep>
  <scstep>
   <time name="diag">    0.38    0.38</time>
   <time name="diis">    1.01    1.01</time>
   <time name="orth">    0.12    0.12</time>
   <time name="total">    1.63    1.63</time>
   <energy>
    <i name="e_fr_energy">    -42.91232071 </i>
    <i name="e_wo_entrp">    -42.90995254 </i>
    <i name="e_0_energy">    -42.91113662 </i>
   </energy>
  </scstep>
  <scstep>
   <time name="diag">    0.58    0.59</time>
   <time name="diis">    0.94    0.94</time>
   <time name="orth">    0.12    0.12</time>
   <time name="total">    1.92    2.14</time>
   <energy>
    <i name="alphaZ">     13.19945063 </i>
    <i name="ewald">   -906.87732482 </i>
    <i name="hartreedc">    -61.26751868 </i>
    <i name="XCdc">    -72.19381384 </i>
    <i name="pawpsdc">    295.63053975 </i>
    <i name="pawaedc">   -155.73445995 </i>
    <i name="eentropy">     -0.00236821 </i>
    <i name="bandstr">     19.80815782 </i>
    <i name="atom">    824.52501657 </i>
    <i name="e_fr_energy">    -42.91232073 </i>
    <i name="e_wo_entrp">    -42.90995251 </i>
    <i name="e_0_energy">    -42.91113662 </i>
   </energy>
  </scstep>
  <structure>
   <crystal>
    <varray name="basis" >
     <v>       5.46503124       0.00000000       0.00000000 </v>
     <v>       0.00000000       5.46503124       0.00000000 </v>
     <v>       0.00000000       0.00000000       5.46503124 </v>
    </varray>
    <i name="volume">    163.22171868 </i>
    <varray name="rec_basis" >
     <v>       0.18298157       0.00000000       0.00000000 </v>
     <v>       0.00000000       0.18298157       0.00000000 </v>
     <v>       0.00000000       0.00000000       0.18298157 </v>
    </varray>
   </crystal>
   <varray name="positions" >
    <v>       0.00000000       0.00000000       0.00000000 </v>
    <v>       0.00000000       0.50000000       0.50000000 </v>
    <v>       0.45000000       0.50000000       0.00000000 </v>
    <v>       0.50000000       0.00000000       0.50000000 </v>
    <v>       0.75000000       0.25000000       0.75000000 </v>
    <v>       0.25000000       0.25000000       0.25000000 </v>
    <v>       0.25000000       0.75000000       0.75000000 </v>
    <v>       0.75000000       0.75000000       0.25000000 </v>
   </varray>
  </structure>
  <varray name="forces" >
   <v>      -0.24271419      -0.00000000       0.00000000 </v>
   <v>      -0.24271419      -0.00000000       0.00000000 </v>
   <v>       3.41467603      -0.00000000       0.00000000 </v>
   <v>       0.44257892      -0.00000000       0.00000000 </v>
   <v>      -0.73892678       0.43764985       0.43764985 </v>
   <v>      -0.94698651      -0.85014243       0.85014243 </v>
   <v>      -0.94698651       0.85014243      -0.85014243 </v>
   <v>      -0.73892678      -0.43764985      -0.43764985 </v>
  </varray>
  <varray name="stress" >
   <v>      -0.38479573       0.00000000       0.00000000 </v>
   <v>       0.00000000      12.51427641     -25.93392502 </v>
   <v>       0.00000000     -25.93392502      12.51427641 </v>
  </varray>
  <energy>
   <i name="e_fr_energy">    -42.91232073 </i>
   <i name="e_wo_entrp">    -42.91113662 </i>
   <i name="e_0_energy">     -0.00236821 </i>
  </energy>
  <scstep>
   <time name="total">    2.29    2.29</time>
   <energy>
    <i name="e_fr_energy">   -169.20664213 </i>
    <i name="e_wo_entrp">   -169.20664213 </i>
    <i name="e_0_energy">   -169.20664213 </i>
   </energy>
  </scstep>
  <scstep>
   <time name="total">    1.72    1.72</time>
   <energy>
    <i name="e_fr_energy">   -115.09480642 </i>
    <i name="e_wo_entrp">   -115.09480642 </i>
    <i name="e_0_energy">   -115.09480642 </i>
   </energy>
  </scstep>
  <scstep>
   <time name="total">    1.73    1.74</time>
   <energy>
    <i name="e_fr_energy">   -114.89510370 </i>
    <i name="e_wo_entrp">   -114.89510370 </i>
    <i name="e_0_energy">   -114.89510370 </i>
   </energy>
  </scstep>
  <scstep>
   <time name="total">    1.35    1.35</time>
   <energy>
    <i name="e_fr_energy">   -114.88303517 </i>
    <i name="e_wo_entrp">   -114.88303517 </i>
    <i name="e_0_energy">   -114.88303517 </i>
   </energy>
  </scstep>
  <scstep>
   <time name="total">    1.36    1.36</time>
   <energy>
    <i name="e_fr_energy">   -114.88290519 </i>
    <i name="e_wo_entrp">   -114.88290519 </i>
    <i name="e_0_energy">   -114.88290519 </i>
   </energy>
  </scstep>
  <scstep>
   <time name="total">    1.41    1.41</time>
   <energy>
    <i name="e_fr_energy">   -114.88289167 </i>
    <i name="e_wo_entrp">   -114.88289167 </i>
    <i name="e_0_energy">   -114.88289167 </i>
   </energy>
  </scstep>
  <scstep>
   <time name="total">    1.45    1.45</time>
   <energy>
    <i name="e_fr_energy">   -114.88289428 </i>
    <i name="e_wo_entrp">   -114.88289428 </i>
    <i name="e_0_energy">   -114.88289428 </i>
   </energy>
  </scstep>
  <scstep>
   <time name="total">    1.43    1.43</time>
   <energy>
    <i name="e_fr_energy">   -114.88289017 </i>
    <i name="e_wo_entrp">   -114.88289017 </i>
    <i name="e_0_energy">   -114.88289017 </i>
   </energy>
  </scstep>
  <scstep>
   <time name="total">    1.44    1.45</time>
   <energy>
    <i name="e_fr_energy">   -114.88289419 </i>
    <i name="e_wo_entrp">   -114.88289419 </i>
    <i name="e_0_energy">   -114.88289419 </i>
   </energy>
  </scstep>
  <scstep>
   <time name="total">    2.27    2.27</time>
   <energy>
    <i name="e_fr_energy">   -163.86895723 </i>
    <i name="e_wo_entrp">   -163.86895723 </i>
    <i name="e_0_energy">   -163.86895723 </i>
   </energy>
  </scstep>
  <scstep>
   <time name="total">    1.72    1.72</time>
   <energy>
    <i name="e_fr_energy">   -115.69510033 </i>
    <i name="e_wo_entrp">   -115.69510033 </i>
    <i name="e_0_energy">   -115.69510033 </i>
   </energy>
  </scstep>
  <scstep>
   <time name="total">    1.74    1.74</time>
   <energy>
    <i name="e_fr_energy">   -115.57333254 </i>
    <i name="e_wo_entrp">   -115.57333254 </i>
    <i name="e_0_energy">   -115.57333254 </i>
   </energy>
  </scstep>
  <scstep>
   <time name="total">    1.35    1.35</time>
   <energy>
    <i name="e_fr_energy">   -115.56632494 </i>
    <i name="e_wo_entrp">   -115.56632494 </i>
    <i name="e_0_energy">   -115.56632494 </i>
   </energy>
  </scstep>
  <scstep>
   <time name="total">    1.37    1.37</time>
   <energy>
    <i name="e_fr_energy">   -115.56673947 </i>
    <i name="e_wo_entrp">   -115.56673947 </i>
    <i name="e_0_energy">   -115.56673947 </i>
   </energy>
  </scstep>
  <scstep>
   <time name="total">    1.41    1.41</time>
   <energy>
    <i name="e_fr_energy">   -115.56686688 </i>
    <i name="e_wo_entrp">   -115.56686688 </i>
    <i name="e_0_energy">   -115.56686688 </i>
   </energy>
  </scstep>
  <scstep>
   <time name="total">    1.45    1.46</time>
   <energy>
    <i name="e_fr_energy">   -115.56704165 </i>
    <i name="e_wo_entrp">   -115.56704165 </i>
    <i name="e_0_energy">   -115.56704165 </i>
   </energy>
  </scstep>
  <scstep>
   <time name="total">    1.44    1.45</time>
   <energy>
    <i name="e_fr_energy">   -115.56691808 </i>
    <i name="e_wo_entrp">   -115.56691808 </i>
    <i name="e_0_energy">   -115.56691808 </i>
   </energy>
  </scstep>
  <scstep>
   <time name="total">    1.44    1.44</time>
   <energy>
    <i name="e_fr_energy">   -115.56702967 </i>
    <i name="e_wo_entrp">   -115.56702967 </i>
    <i name="e_0_energy">   -115.56702967 </i>
   </energy>
  </scstep>
  <scstep>
   <time name="total">    2.31    2.31</time>
   <energy>
    <i name="e_fr_energy">   -170.36973591 </i>
    <i name="e_wo_entrp">   -170.36973591 </i>
    <i name="e_0_energy">   -170.36973591 </i>
   </energy>
  </scstep>
  <scstep>
   <time name="total">    1.72    1.73</time>
   <energy>
    <i name="e_fr_energy">   -114.44947306 </i>
    <i name="e_wo_entrp">   -114.44947306 </i>
    <i name="e_0_energy">   -114.44947306 </i>
   </energy>
  </scstep>
  <scstep>
   <time name="total">    1.75    1.75</time>
   <energy>
    <i name="e_fr_energy">   -114.21346042 </i>
    <i name="e_wo_entrp">   -114.21346042 </i>
    <i name="e_0_energy">   -114.21346042 </i>
   </energy>
  </scstep>
  <scstep>
   <time name="total">    1.36    1.36</time>
   <energy>
    <i name="e_fr_energy">   -114.20312223 </i>
    <i name="e_wo_entrp">   -114.20312223 </i>
    <i name="e_0_energy">   -114.20312223 </i>
   </energy>
  </scstep>
  <scstep>
   <time name="total">    1.37    1.37</time>
   <energy>
    <i name="e_fr_energy">   -114.20373936 </i>
    <i name="e_wo_entrp">   -114.20373936 </i>
    <i name="e_0_energy">   -114.20373936 </i>
   </energy>
  </scstep>
  <scstep>
   <time name="total">    1.41    1.41</time>
   <energy>
    <i name="e_fr_energy">   -114.20402573 </i>
    <i name="e_wo_entrp">   -114.20402573 </i>
    <i name="e_0_energy">   -114.20402573 </i>
   </energy>
  </scstep>
  <scstep>
   <time name="total">    1.46    1.46</time>
   <energy>
    <i name="e_fr_energy">   -114.20394668 </i>
    <i name="e_wo_entrp">   -114.20394668 </i>
    <i name="e_0_energy">   -114.20394668 </i>
   </energy>
  </scstep>
  <scstep>
   <time name="total">    1.44    1.45</time>
   <energy>
    <i name="e_fr_energy">   -114.20407157 </i>
    <i name="e_wo_entrp">   -114.20407157 </i>
    <i name="e_0_energy">   -114.20407157 </i>
   </energy>
  </scstep>
  <scstep>
   <time name="total">    1.45    1.45</time>
   <energy>
    <i name="e_fr_energy">   -114.20393350 </i>
    <i name="e_wo_entrp">   -114.20393350 </i>
    <i name="e_0_energy">   -114.20393350 </i>
   </energy>
  </scstep>
  <scstep>
   <time name="total">    2.25    2.25</time>
   <energy>
    <i name="e_fr_energy">     -5.98993632 </i>
    <i name="e_wo_entrp">     -5.98993632 </i>
    <i name="e_0_energy">     -5.98993632 </i>
   </energy>
  </scstep>
  <scstep>
   <time name="total">    1.89    1.89</time>
   <energy>
    <i name="e_fr_energy">     -6.64165256 </i>
    <i name="e_wo_entrp">     -6.64165256 </i>
    <i name="e_0_energy">     -6.64165256 </i>
   </energy>
  </scstep>
  <scstep>
   <time name="total">    1.91    1.92</time>
   <energy>
    <i name="e_fr_energy">     -6.64241726 </i>
    <i name="e_wo_entrp">     -6.64241726 </i>
    <i name="e_0_energy">     -6.64241726 </i>
   </energy>
  </scstep>
  <scstep>
   <time name="total">    1.95    1.95</time>
   <energy>
    <i name="e_fr_energy">     -6.64242293 </i>
    <i name="e_wo_entrp">     -6.64242293 </i>
    <i name="e_0_energy">     -6.64242293 </i>
   </energy>
  </scstep>
  <scstep>
   <time name="total">    1.90    1.91</time>
   <energy>
    <i name="e_fr_energy">     -6.64242302 </i>
    <i name="e_wo_entrp">     -6.64242302 </i>
    <i name="e_0_energy">     -6.64242302 </i>
   </energy>
  </scstep>
  <scstep>
   <time name="total">    2.26    2.26</time>
   <energy>
    <i name="e_fr_energy">     -5.80923110 </i>
    <i name="e_wo_entrp">     -5.80923110 </i>
    <i name="e_0_energy">     -5.80923110 </i>
   </energy>
  </scstep>
  <scstep>
   <time name="total">    1.88    1.88</time>
   <energy>
    <i name="e_fr_energy">     -6.76376492 </i>
    <i name="e_wo_entrp">     -6.76376492 </i>
    <i name="e_0_energy">     -6.76376492 </i>
   </energy>
  </scstep>
  <scstep>
   <time name="total">    1.92    1.92</time>
   <energy>
    <i name="e_fr_energy">     -6.76450262 </i>
    <i name="e_wo_entrp">     -6.76450262 </i>
    <i name="e_0_energy">     -6.76450262 </i>
   </energy>
  </scstep>
  <scstep>
   <time name="total">    1.95    1.95</time>
   <energy>
    <i name="e_fr_energy">     -6.76450960 </i>
    <i name="e_wo_entrp">     -6.76450960 </i>
    <i name="e_0_energy">     -6.76450960 </i>
   </energy>
  </scstep>
  <scstep>
   <time name="total">    1.88    1.89</time>
   <energy>
    <i name="e_fr_energy">     -6.76450974 </i>
    <i name="e_wo_entrp">     -6.76450974 </i>
    <i name="e_0_energy">     -6.76450974 </i>
   </energy>
  </scstep>
  <scstep>
   <time name="total">    2.26    2.26</time>
   <energy>
    <i name="e_fr_energy">     -5.89729095 </i>
    <i name="e_wo_entrp">     -5.89729095 </i>
    <i name="e_0_energy">     -5.89729095 </i>
   </energy>
  </scstep>
  <scstep>
   <time name="total">    1.89    1.89</time>
   <energy>
    <i name="e_fr_energy">     -6.71562934 </i>
    <i name="e_wo_entrp">     -6.71562934 </i>
    <i name="e_0_energy">     -6.71562934 </i>
   </energy>
  </scstep>
  <scstep>
   <time name="total">    1.93    1.93</time>
   <energy>
    <i name="e_fr_energy">     -6.71637332 </i>
    <i name="e_wo_entrp">     -6.71637332 </i>
    <i name="e_0_energy">     -6.71637332 </i>
   </energy>
  </scstep>
  <scstep>
   <time name="total">    1.95    1.95</time>
   <energy>
    <i name="e_fr_energy">     -6.71637861 </i>
    <i name="e_wo_entrp">     -6.71637861 </i>
    <i name="e_0_energy">     -6.71637861 </i>
   </energy>
  </scstep>
  <scstep>
   <time name="total">    1.89    1.90</time>
   <energy>
    <i name="e_fr_energy">     -6.71637871 </i>
    <i name="e_wo_entrp">     -6.71637871 </i>
    <i name="e_0_energy">     -6.71637871 </i>
   </energy>
  </scstep>
  <varray name="epsilon_rpa" >
   <v>      15.72802783       0.00000000       0.00000000 </v>
   <v>       0.00000000      15.94536907       1.89280435 </v>
   <v>       0.00000000       1.89280435      15.94536907 </v>
  </varray>
  <kpoints>
   <generation param="Gamma">
    <v type="int" name="divisions">       7        7        7 </v>
    <v name="usershift">      0.00000000       0.00000000       0.00000000 </v>
    <v name="genvec1">      0.14285714       0.00000000       0.00000000 </v>
    <v name="genvec2">      0.00000000       0.14285714       0.00000000 </v>
    <v name="genvec3">      0.00000000       0.00000000       0.14285714 </v>
    <v name="shift">      0.00000000       0.00000000       0.00000000 </v>
   </generation>
   <varray name="kpointlist" >
    <v>       0.00000000       0.00000000       0.00000000 </v>
    <v>       0.14285714       0.00000000       0.00000000 </v>
    <v>       0.28571429       0.00000000       0.00000000 </v>
    <v>       0.42857143       0.00000000       0.00000000 </v>
    <v>       0.00000000       0.14285714       0.00000000 </v>
    <v>       0.14285714       0.14285714       0.00000000 </v>
    <v>       0.28571429       0.14285714       0.00000000 </v>
    <v>       0.42857143       0.14285714       0.00000000 </v>
    <v>       0.00000000       0.28571429       0.00000000 </v>
    <v>       0.14285714       0.28571429       0.00000000 </v>
    <v>       0.28571429       0.28571429       0.00000000 </v>
    <v>       0.42857143       0.28571429       0.00000000 </v>
    <v>       0.00000000       0.42857143       0.00000000 </v>
    <v>       0.14285714       0.42857143       0.00000000 </v>
    <v>       0.28571429       0.42857143       0.00000000 </v>
    <v>       0.42857143       0.42857143       0.00000000 </v>
    <v>       0.00000000       0.14285714       0.14285714 </v>
    <v>       0.14285714       0.14285714       0.14285714 </v>
    <v>       0.28571429       0.14285714       0.14285714 </v>
    <v>       0.42857143       0.14285714       0.14285714 </v>
    <v>       0.00000000       0.28571429       0.14285714 </v>
    <v>       0.14285714       0.28571429       0.14285714 </v>
    <v>       0.28571429       0.28571429       0.14285714 </v>
    <v>       0.42857143       0.28571429       0.14285714 </v>
    <v>       0.00000000       0.42857143       0.14285714 </v>
    <v>       0.14285714       0.42857143       0.14285714 </v>
    <v>       0.28571429       0.42857143       0.14285714 </v>
    <v>       0.42857143       0.42857143       0.14285714 </v>
    <v>       0.00000000      -0.42857143       0.14285714 </v>
    <v>       0.14285714      -0.42857143       0.14285714 </v>
    <v>       0.28571429      -0.42857143       0.14285714 </v>
    <v>       0.42857143      -0.42857143       0.14285714 </v>
    <v>       0.00000000      -0.28571429       0.14285714 </v>
    <v>       0.14285714      -0.28571429       0.14285714 </v>
    <v>       0.28571429      -0.28571429       0.14285714 </v>
    <v>       0.42857143      -0.28571429       0.14285714 </v>
    <v>       0.00000000      -0.14285714       0.14285714 </v>
    <v>       0.14285714      -0.14285714       0.14285714 </v>
    <v>       0.28571429      -0.14285714       0.14285714 </v>
    <v>       0.42857143      -0.14285714       0.14285714 </v>
    <v>       0.00000000       0.28571429       0.28571429 </v>
    <v>       0.14285714       0.28571429       0.28571429 </v>
    <v>       0.28571429       0.28571429       0.28571429 </v>
    <v>       0.42857143       0.28571429       0.28571429 </v>
    <v>       0.00000000       0.42857143       0.28571429 </v>
    <v>       0.14285714       0.42857143       0.28571429 </v>
    <v>       0.28571429       0.42857143       0.28571429 </v>
    <v>       0.42857143       0.42857143       0.28571429 </v>
    <v>       0.00000000      -0.42857143       0.28571429 </v>
    <v>       0.14285714      -0.42857143       0.28571429 </v>
    <v>       0.28571429      -0.42857143       0.28571429 </v>
    <v>       0.42857143      -0.42857143       0.28571429 </v>
    <v>       0.00000000      -0.28571429       0.28571429 </v>
    <v>       0.14285714      -0.28571429       0.28571429 </v>
    <v>       0.28571429      -0.28571429       0.28571429 </v>
    <v>       0.42857143      -0.28571429       0.28571429 </v>
    <v>       0.00000000       0.42857143       0.42857143 </v>
    <v>       0.14285714       0.42857143       0.42857143 </v>
    <v>       0.28571429       0.42857143       0.42857143 </v>
    <v>       0.42857143       0.42857143       0.42857143 </v>
    <v>       0.00000000      -0.42857143       0.42857143 </v>
    <v>       0.14285714      -0.42857143       0.42857143 </v>
    <v>       0.28571429      -0.42857143       0.42857143 </v>
    <v>       0.42857143      -0.42857143       0.42857143 </v>
   </varray>
   <varray name="weights" >
    <v>       0.00291545 </v>
    <v>       0.00583090 </v>
    <v>       0.00583090 </v>
    <v>       0.00583090 </v>
    <v>       0.01166181 </v>
    <v>       0.02332362 </v>
    <v>       0.02332362 </v>
    <v>       0.02332362 </v>
    <v>       0.01166181 </v>
    <v>       0.02332362 </v>
    <v>       0.02332362 </v>
    <v>       0.02332362 </v>
    <v>       0.01166181 </v>
    <v>       0.02332362 </v>
    <v>       0.02332362 </v>
    <v>       0.02332362 </v>
    <v>       0.00583090 </v>
    <v>       0.01166181 </v>
    <v>       0.01166181 </v>
    <v>       0.01166181 </v>
    <v>       0.01166181 </v>
    <v>       0.02332362 </v>
    <v>       0.02332362 </v>
    <v>       0.02332362 </v>
    <v>       0.01166181 </v>
    <v>       0.02332362 </v>
    <v>       0.02332362 </v>
    <v>       0.02332362 </v>
    <v>       0.01166181 </v>
    <v>       0.02332362 </v>
    <v>       0.02332362 </v>
    <v>       0.02332362 </v>
    <v>       0.01166181 </v>
    <v>       0.02332362 </v>
    <v>       0.02332362 </v>
    <v>       0.02332362 </v>
    <v>       0.00583090 </v>
    <v>       0.01166181 </v>
    <v>       0.01166181 </v>
    <v>       0.01166181 </v>
    <v>       0.00583090 </v>
    <v>       0.01166181 </v>
    <v>       0.01166181 </v>
    <v>       0.01166181 </v>
    <v>       0.01166181 </v>
    <v>       0.02332362 </v>
    <v>       0.02332362 </v>
    <v>       0.02332362 </v>
    <v>       0.01166181 </v>
    <v>       0.02332362 </v>
    <v>       0.02332362 </v>
    <v>       0.02332362 </v>
    <v>       0.00583090 </v>
    <v>       0.01166181 </v>
    <v>       0.01166181 </v>
    <v>       0.01166181 </v>
    <v>       0.00583090 </v>
    <v>       0.01166181 </v>
    <v>       0.01166181 </v>
    <v>       0.01166181 </v>
    <v>       0.00583090 </v>
    <v>       0.01166181 </v>
    <v>       0.01166181 </v>
    <v>       0.01166181 </v>
   </varray>
  </kpoints>
  <scstep>
   <time name="total">    2.25    2.25</time>
   <energy>
    <i name="e_fr_energy">     -5.98993632 </i>
    <i name="e_wo_entrp">     -5.98993632 </i>
    <i name="e_0_energy">     -5.98993632 </i>
   </energy>
  </scstep>
  <scstep>
   <time name="total">    2.04    2.04</time>
   <energy>
    <i name="e_fr_energy">     -6.64165256 </i>
    <i name="e_wo_entrp">     -6.64165256 </i>
    <i name="e_0_energy">     -6.64165256 </i>
   </energy>
  </scstep>
  <scstep>
   <time name="total">    2.08    2.08</time>
   <energy>
    <i name="e_fr_energy">     -6.45992770 </i>
    <i name="e_wo_entrp">     -6.45992770 </i>
    <i name="e_0_energy">     -6.45992770 </i>
   </energy>
  </scstep>
  <scstep>
   <time name="total">    2.12    2.13</time>
   <energy>
    <i name="e_fr_energy">     -6.64596144 </i>
    <i name="e_wo_entrp">     -6.64596144 </i>
    <i name="e_0_energy">     -6.64596144 </i>
   </energy>
  </scstep>
  <scstep>
   <time name="total">    2.13    2.13</time>
   <energy>
    <i name="e_fr_energy">     -6.73034543 </i>
    <i name="e_wo_entrp">     -6.73034543 </i>
    <i name="e_0_energy">     -6.73034543 </i>
   </energy>
  </scstep>
  <scstep>
   <time name="total">    2.10    2.11</time>
   <energy>
    <i name="e_fr_energy">     -6.75351648 </i>
    <i name="e_wo_entrp">     -6.75351648 </i>
    <i name="e_0_energy">     -6.75351648 </i>
   </energy>
  </scstep>
  <scstep>
   <time name="total">    2.12    2.12</time>
   <energy>
    <i name="e_fr_energy">     -6.75587500 </i>
    <i name="e_wo_entrp">     -6.75587500 </i>
    <i name="e_0_energy">     -6.75587500 </i>
   </energy>
  </scstep>
  <scstep>
   <time name="total">    2.11    2.12</time>
   <energy>
    <i name="e_fr_energy">     -6.75700799 </i>
    <i name="e_wo_entrp">     -6.75700799 </i>
    <i name="e_0_energy">     -6.75700799 </i>
   </energy>
  </scstep>
  <scstep>
   <time name="total">    2.15    2.16</time>
   <energy>
    <i name="e_fr_energy">     -6.75724960 </i>
    <i name="e_wo_entrp">     -6.75724960 </i>
    <i name="e_0_energy">     -6.75724960 </i>
   </energy>
  </scstep>
  <scstep>
   <time name="total">    2.14    2.15</time>
   <energy>
    <i name="e_fr_energy">     -6.75724684 </i>
    <i name="e_wo_entrp">     -6.75724684 </i>
    <i name="e_0_energy">     -6.75724684 </i>
   </energy>
  </scstep>
  <scstep>
   <time name="total">    2.03    2.03</time>
   <energy>
    <i name="e_fr_energy">     -6.75725878 </i>
    <i name="e_wo_entrp">     -6.75725878 </i>
    <i name="e_0_energy">     -6.75725878 </i>
   </energy>
  </scstep>
  <scstep>
   <time name="total">    2.02    2.02</time>
   <energy>
    <i name="e_fr_energy">     -6.75725791 </i>
    <i name="e_wo_entrp">     -6.75725791 </i>
    <i name="e_0_energy">     -6.75725791 </i>
   </energy>
  </scstep>
  <kpoints>
   <generation param="Gamma">
    <v type="int" name="divisions">       7        7        7 </v>
    <v name="usershift">      0.00000000       0.00000000       0.00000000 </v>
    <v name="genvec1">      0.14285714       0.00000000       0.00000000 </v>
    <v name="genvec2">      0.00000000       0.14285714       0.00000000 </v>
    <v name="genvec3">      0.00000000       0.00000000       0.14285714 </v>
    <v name="shift">      0.00000000       0.00000000       0.00000000 </v>
   </generation>
   <varray name="kpointlist" >
    <v>       0.00000000       0.00000000       0.00000000 </v>
    <v>       0.14285714       0.00000000       0.00000000 </v>
    <v>       0.28571429       0.00000000       0.00000000 </v>
    <v>       0.42857143       0.00000000       0.00000000 </v>
    <v>       0.00000000       0.14285714       0.00000000 </v>
    <v>       0.14285714       0.14285714       0.00000000 </v>
    <v>       0.28571429       0.14285714       0.00000000 </v>
    <v>       0.42857143       0.14285714       0.00000000 </v>
    <v>      -0.42857143       0.14285714       0.00000000 </v>
    <v>      -0.28571429       0.14285714       0.00000000 </v>
    <v>      -0.14285714       0.14285714       0.00000000 </v>
    <v>       0.00000000       0.28571429       0.00000000 </v>
    <v>       0.14285714       0.28571429       0.00000000 </v>
    <v>       0.28571429       0.28571429       0.00000000 </v>
    <v>       0.42857143       0.28571429       0.00000000 </v>
    <v>      -0.42857143       0.28571429       0.00000000 </v>
    <v>      -0.28571429       0.28571429       0.00000000 </v>
    <v>      -0.14285714       0.28571429       0.00000000 </v>
    <v>       0.00000000       0.42857143       0.00000000 </v>
    <v>       0.14285714       0.42857143       0.00000000 </v>
    <v>       0.28571429       0.42857143       0.00000000 </v>
    <v>       0.42857143       0.42857143       0.00000000 </v>
    <v>      -0.42857143       0.42857143       0.00000000 </v>
    <v>      -0.28571429       0.42857143       0.00000000 </v>
    <v>      -0.14285714       0.42857143       0.00000000 </v>
    <v>       0.00000000       0.00000000       0.14285714 </v>
    <v>       0.14285714       0.00000000       0.14285714 </v>
    <v>       0.28571429       0.00000000       0.14285714 </v>
    <v>       0.42857143       0.00000000       0.14285714 </v>
    <v>      -0.42857143       0.00000000       0.14285714 </v>
    <v>      -0.28571429       0.00000000       0.14285714 </v>
    <v>      -0.14285714       0.00000000       0.14285714 </v>
    <v>       0.00000000       0.14285714       0.14285714 </v>
    <v>       0.14285714       0.14285714       0.14285714 </v>
    <v>       0.28571429       0.14285714       0.14285714 </v>
    <v>       0.42857143       0.14285714       0.14285714 </v>
    <v>      -0.42857143       0.14285714       0.14285714 </v>
    <v>      -0.28571429       0.14285714       0.14285714 </v>
    <v>      -0.14285714       0.14285714       0.14285714 </v>
    <v>       0.00000000       0.28571429       0.14285714 </v>
    <v>       0.14285714       0.28571429       0.14285714 </v>
    <v>       0.28571429       0.28571429       0.14285714 </v>
    <v>       0.42857143       0.28571429       0.14285714 </v>
    <v>      -0.42857143       0.28571429       0.14285714 </v>
    <v>      -0.28571429       0.28571429       0.14285714 </v>
    <v>      -0.14285714       0.28571429       0.14285714 </v>
    <v>       0.00000000       0.42857143       0.14285714 </v>
    <v>       0.14285714       0.42857143       0.14285714 </v>
    <v>       0.28571429       0.42857143       0.14285714 </v>
    <v>       0.42857143       0.42857143       0.14285714 </v>
    <v>      -0.42857143       0.42857143       0.14285714 </v>
    <v>      -0.28571429       0.42857143       0.14285714 </v>
    <v>      -0.14285714       0.42857143       0.14285714 </v>
    <v>       0.00000000      -0.42857143       0.14285714 </v>
    <v>       0.14285714      -0.42857143       0.14285714 </v>
    <v>       0.28571429      -0.42857143       0.14285714 </v>
    <v>       0.42857143      -0.42857143       0.14285714 </v>
    <v>      -0.42857143      -0.42857143       0.14285714 </v>
    <v>      -0.28571429      -0.42857143       0.14285714 </v>
    <v>      -0.14285714      -0.42857143       0.14285714 </v>
    <v>       0.00000000      -0.28571429       0.14285714 </v>
    <v>       0.14285714      -0.28571429       0.14285714 </v>
    <v>       0.28571429      -0.28571429       0.14285714 </v>
    <v>       0.42857143      -0.28571429       0.14285714 </v>
    <v>      -0.42857143      -0.28571429       0.14285714 </v>
    <v>      -0.28571429      -0.28571429       0.14285714 </v>
    <v>      -0.14285714      -0.28571429       0.14285714 </v>
    <v>       0.00000000      -0.14285714       0.14285714 </v>
    <v>       0.14285714      -0.14285714       0.14285714 </v>
    <v>       0.28571429      -0.14285714       0.14285714 </v>
    <v>       0.42857143      -0.14285714       0.14285714 </v>
    <v>      -0.42857143      -0.14285714       0.14285714 </v>
    <v>      -0.28571429      -0.14285714       0.14285714 </v>
    <v>      -0.14285714      -0.14285714       0.14285714 </v>
    <v>       0.00000000       0.00000000       0.28571429 </v>
    <v>       0.14285714       0.00000000       0.28571429 </v>
    <v>       0.28571429       0.00000000       0.28571429 </v>
    <v>       0.42857143       0.00000000       0.28571429 </v>
    <v>      -0.42857143       0.00000000       0.28571429 </v>
    <v>      -0.28571429       0.00000000       0.28571429 </v>
    <v>      -0.14285714       0.00000000       0.28571429 </v>
    <v>       0.00000000       0.14285714       0.28571429 </v>
    <v>       0.14285714       0.14285714       0.28571429 </v>
    <v>       0.28571429       0.14285714       0.28571429 </v>
    <v>       0.42857143       0.14285714       0.28571429 </v>
    <v>      -0.42857143       0.14285714       0.28571429 </v>
    <v>      -0.28571429       0.14285714       0.28571429 </v>
    <v>      -0.14285714       0.14285714       0.28571429 </v>
    <v>       0.00000000       0.28571429       0.28571429 </v>
    <v>       0.14285714       0.28571429       0.28571429 </v>
    <v>       0.28571429       0.28571429       0.28571429 </v>
    <v>       0.42857143       0.28571429       0.28571429 </v>
    <v>      -0.42857143       0.28571429       0.28571429 </v>
    <v>      -0.28571429       0.28571429       0.28571429 </v>
    <v>      -0.14285714       0.28571429       0.28571429 </v>
    <v>       0.00000000       0.42857143       0.28571429 </v>
    <v>       0.14285714       0.42857143       0.28571429 </v>
    <v>       0.28571429       0.42857143       0.28571429 </v>
    <v>       0.42857143       0.42857143       0.28571429 </v>
    <v>      -0.42857143       0.42857143       0.28571429 </v>
    <v>      -0.28571429       0.42857143       0.28571429 </v>
    <v>      -0.14285714       0.42857143       0.28571429 </v>
    <v>       0.00000000      -0.42857143       0.28571429 </v>
    <v>       0.14285714      -0.42857143       0.28571429 </v>
    <v>       0.28571429      -0.42857143       0.28571429 </v>
    <v>       0.42857143      -0.42857143       0.28571429 </v>
    <v>      -0.42857143      -0.42857143       0.28571429 </v>
    <v>      -0.28571429      -0.42857143       0.28571429 </v>
    <v>      -0.14285714      -0.42857143       0.28571429 </v>
    <v>       0.00000000      -0.28571429       0.28571429 </v>
    <v>       0.14285714      -0.28571429       0.28571429 </v>
    <v>       0.28571429      -0.28571429       0.28571429 </v>
    <v>       0.42857143      -0.28571429       0.28571429 </v>
    <v>      -0.42857143      -0.28571429       0.28571429 </v>
    <v>      -0.28571429      -0.28571429       0.28571429 </v>
    <v>      -0.14285714      -0.28571429       0.28571429 </v>
    <v>       0.00000000      -0.14285714       0.28571429 </v>
    <v>       0.14285714      -0.14285714       0.28571429 </v>
    <v>       0.28571429      -0.14285714       0.28571429 </v>
    <v>       0.42857143      -0.14285714       0.28571429 </v>
    <v>      -0.42857143      -0.14285714       0.28571429 </v>
    <v>      -0.28571429      -0.14285714       0.28571429 </v>
    <v>      -0.14285714      -0.14285714       0.28571429 </v>
    <v>       0.00000000       0.00000000       0.42857143 </v>
    <v>       0.14285714       0.00000000       0.42857143 </v>
    <v>       0.28571429       0.00000000       0.42857143 </v>
    <v>       0.42857143       0.00000000       0.42857143 </v>
    <v>      -0.42857143       0.00000000       0.42857143 </v>
    <v>      -0.28571429       0.00000000       0.42857143 </v>
    <v>      -0.14285714       0.00000000       0.42857143 </v>
    <v>       0.00000000       0.14285714       0.42857143 </v>
    <v>       0.14285714       0.14285714       0.42857143 </v>
    <v>       0.28571429       0.14285714       0.42857143 </v>
    <v>       0.42857143       0.14285714       0.42857143 </v>
    <v>      -0.42857143       0.14285714       0.42857143 </v>
    <v>      -0.28571429       0.14285714       0.42857143 </v>
    <v>      -0.14285714       0.14285714       0.42857143 </v>
    <v>       0.00000000       0.28571429       0.42857143 </v>
    <v>       0.14285714       0.28571429       0.42857143 </v>
    <v>       0.28571429       0.28571429       0.42857143 </v>
    <v>       0.42857143       0.28571429       0.42857143 </v>
    <v>      -0.42857143       0.28571429       0.42857143 </v>
    <v>      -0.28571429       0.28571429       0.42857143 </v>
    <v>      -0.14285714       0.28571429       0.42857143 </v>
    <v>       0.00000000       0.42857143       0.42857143 </v>
    <v>       0.14285714       0.42857143       0.42857143 </v>
    <v>       0.28571429       0.42857143       0.42857143 </v>
    <v>       0.42857143       0.42857143       0.42857143 </v>
    <v>      -0.42857143       0.42857143       0.42857143 </v>
    <v>      -0.28571429       0.42857143       0.42857143 </v>
    <v>      -0.14285714       0.42857143       0.42857143 </v>
    <v>       0.00000000      -0.42857143       0.42857143 </v>
    <v>       0.14285714      -0.42857143       0.42857143 </v>
    <v>       0.28571429      -0.42857143       0.42857143 </v>
    <v>       0.42857143      -0.42857143       0.42857143 </v>
    <v>      -0.42857143      -0.42857143       0.42857143 </v>
    <v>      -0.28571429      -0.42857143       0.42857143 </v>
    <v>      -0.14285714      -0.42857143       0.42857143 </v>
    <v>       0.00000000      -0.28571429       0.42857143 </v>
    <v>       0.14285714      -0.28571429       0.42857143 </v>
    <v>       0.28571429      -0.28571429       0.42857143 </v>
    <v>       0.42857143      -0.28571429       0.42857143 </v>
    <v>      -0.42857143      -0.28571429       0.42857143 </v>
    <v>      -0.28571429      -0.28571429       0.42857143 </v>
    <v>      -0.14285714      -0.28571429       0.42857143 </v>
    <v>       0.00000000      -0.14285714       0.42857143 </v>
    <v>       0.14285714      -0.14285714       0.42857143 </v>
    <v>       0.28571429      -0.14285714       0.42857143 </v>
    <v>       0.42857143      -0.14285714       0.42857143 </v>
    <v>      -0.42857143      -0.14285714       0.42857143 </v>
    <v>      -0.28571429      -0.14285714       0.42857143 </v>
    <v>      -0.14285714      -0.14285714       0.42857143 </v>
   </varray>
   <varray name="weights" >
    <v>       0.00291545 </v>
    <v>       0.00583090 </v>
    <v>       0.00583090 </v>
    <v>       0.00583090 </v>
    <v>       0.00583090 </v>
    <v>       0.00583090 </v>
    <v>       0.00583090 </v>
    <v>       0.00583090 </v>
    <v>       0.00583090 </v>
    <v>       0.00583090 </v>
    <v>       0.00583090 </v>
    <v>       0.00583090 </v>
    <v>       0.00583090 </v>
    <v>       0.00583090 </v>
    <v>       0.00583090 </v>
    <v>       0.00583090 </v>
    <v>       0.00583090 </v>
    <v>       0.00583090 </v>
    <v>       0.00583090 </v>
    <v>       0.00583090 </v>
    <v>       0.00583090 </v>
    <v>       0.00583090 </v>
    <v>       0.00583090 </v>
    <v>       0.00583090 </v>
    <v>       0.00583090 </v>
    <v>       0.00583090 </v>
    <v>       0.00583090 </v>
    <v>       0.00583090 </v>
    <v>       0.00583090 </v>
    <v>       0.00583090 </v>
    <v>       0.00583090 </v>
    <v>       0.00583090 </v>
    <v>       0.00583090 </v>
    <v>       0.00583090 </v>
    <v>       0.00583090 </v>
    <v>       0.00583090 </v>
    <v>       0.00583090 </v>
    <v>       0.00583090 </v>
    <v>       0.00583090 </v>
    <v>       0.00583090 </v>
    <v>       0.00583090 </v>
    <v>       0.00583090 </v>
    <v>       0.00583090 </v>
    <v>       0.00583090 </v>
    <v>       0.00583090 </v>
    <v>       0.00583090 </v>
    <v>       0.00583090 </v>
    <v>       0.00583090 </v>
    <v>       0.00583090 </v>
    <v>       0.00583090 </v>
    <v>       0.00583090 </v>
    <v>       0.00583090 </v>
    <v>       0.00583090 </v>
    <v>       0.00583090 </v>
    <v>       0.00583090 </v>
    <v>       0.00583090 </v>
    <v>       0.00583090 </v>
    <v>       0.00583090 </v>
    <v>       0.00583090 </v>
    <v>       0.00583090 </v>
    <v>       0.00583090 </v>
    <v>       0.00583090 </v>
    <v>       0.00583090 </v>
    <v>       0.00583090 </v>
    <v>       0.00583090 </v>
    <v>       0.00583090 </v>
    <v>       0.00583090 </v>
    <v>       0.00583090 </v>
    <v>       0.00583090 </v>
    <v>       0.00583090 </v>
    <v>       0.00583090 </v>
    <v>       0.00583090 </v>
    <v>       0.00583090 </v>
    <v>       0.00583090 </v>
    <v>       0.00583090 </v>
    <v>       0.00583090 </v>
    <v>       0.00583090 </v>
    <v>       0.00583090 </v>
    <v>       0.00583090 </v>
    <v>       0.00583090 </v>
    <v>       0.00583090 </v>
    <v>       0.00583090 </v>
    <v>       0.00583090 </v>
    <v>       0.00583090 </v>
    <v>       0.00583090 </v>
    <v>       0.00583090 </v>
    <v>       0.00583090 </v>
    <v>       0.00583090 </v>
    <v>       0.00583090 </v>
    <v>       0.00583090 </v>
    <v>       0.00583090 </v>
    <v>       0.00583090 </v>
    <v>       0.00583090 </v>
    <v>       0.00583090 </v>
    <v>       0.00583090 </v>
    <v>       0.00583090 </v>
    <v>       0.00583090 </v>
    <v>       0.00583090 </v>
    <v>       0.00583090 </v>
    <v>       0.00583090 </v>
    <v>       0.00583090 </v>
    <v>       0.00583090 </v>
    <v>       0.00583090 </v>
    <v>       0.00583090 </v>
    <v>       0.00583090 </v>
    <v>       0.00583090 </v>
    <v>       0.00583090 </v>
    <v>       0.00583090 </v>
    <v>       0.00583090 </v>
    <v>       0.00583090 </v>
    <v>       0.00583090 </v>
    <v>       0.00583090 </v>
    <v>       0.00583090 </v>
    <v>       0.00583090 </v>
    <v>       0.00583090 </v>
    <v>       0.00583090 </v>
    <v>       0.00583090 </v>
    <v>       0.00583090 </v>
    <v>       0.00583090 </v>
    <v>       0.00583090 </v>
    <v>       0.00583090 </v>
    <v>       0.00583090 </v>
    <v>       0.00583090 </v>
    <v>       0.00583090 </v>
    <v>       0.00583090 </v>
    <v>       0.00583090 </v>
    <v>       0.00583090 </v>
    <v>       0.00583090 </v>
    <v>       0.00583090 </v>
    <v>       0.00583090 </v>
    <v>       0.00583090 </v>
    <v>       0.00583090 </v>
    <v>       0.00583090 </v>
    <v>       0.00583090 </v>
    <v>       0.00583090 </v>
    <v>       0.00583090 </v>
    <v>       0.00583090 </v>
    <v>       0.00583090 </v>
    <v>       0.00583090 </v>
    <v>       0.00583090 </v>
    <v>       0.00583090 </v>
    <v>       0.00583090 </v>
    <v>       0.00583090 </v>
    <v>       0.00583090 </v>
    <v>       0.00583090 </v>
    <v>       0.00583090 </v>
    <v>       0.00583090 </v>
    <v>       0.00583090 </v>
    <v>       0.00583090 </v>
    <v>       0.00583090 </v>
    <v>       0.00583090 </v>
    <v>       0.00583090 </v>
    <v>       0.00583090 </v>
    <v>       0.00583090 </v>
    <v>       0.00583090 </v>
    <v>       0.00583090 </v>
    <v>       0.00583090 </v>
    <v>       0.00583090 </v>
    <v>       0.00583090 </v>
    <v>       0.00583090 </v>
    <v>       0.00583090 </v>
    <v>       0.00583090 </v>
    <v>       0.00583090 </v>
    <v>       0.00583090 </v>
    <v>       0.00583090 </v>
    <v>       0.00583090 </v>
    <v>       0.00583090 </v>
    <v>       0.00583090 </v>
    <v>       0.00583090 </v>
    <v>       0.00583090 </v>
    <v>       0.00583090 </v>
    <v>       0.00583090 </v>
   </varray>
  </kpoints>
  <scstep>
   <time name="total">    5.98    5.98</time>
   <energy>
    <i name="e_fr_energy">     -5.85326136 </i>
    <i name="e_wo_entrp">     -5.85326136 </i>
    <i name="e_0_energy">     -5.85326136 </i>
   </energy>
  </scstep>
  <scstep>
   <time name="total">    5.41    5.41</time>
   <energy>
    <i name="e_fr_energy">     -6.73969745 </i>
    <i name="e_wo_entrp">     -6.73969745 </i>
    <i name="e_0_energy">     -6.73969745 </i>
   </energy>
  </scstep>
  <scstep>
   <time name="total">    5.53    5.54</time>
   <energy>
    <i name="e_fr_energy">     -6.59242969 </i>
    <i name="e_wo_entrp">     -6.59242969 </i>
    <i name="e_0_energy">     -6.59242969 </i>
   </energy>
  </scstep>
  <scstep>
   <time name="total">    5.58    5.58</time>
   <energy>
    <i name="e_fr_energy">     -6.79958966 </i>
    <i name="e_wo_entrp">     -6.79958966 </i>
    <i name="e_0_energy">     -6.79958966 </i>
   </energy>
  </scstep>
  <scstep>
   <time name="total">    5.57    5.57</time>
   <energy>
    <i name="e_fr_energy">     -6.87759623 </i>
    <i name="e_wo_entrp">     -6.87759623 </i>
    <i name="e_0_energy">     -6.87759623 </i>
   </energy>
  </scstep>
  <scstep>
   <time name="total">    5.64    5.64</time>
   <energy>
    <i name="e_fr_energy">     -6.88279287 </i>
    <i name="e_wo_entrp">     -6.88279287 </i>
    <i name="e_0_energy">     -6.88279287 </i>
   </energy>
  </scstep>
  <scstep>
   <time name="total">    5.58    5.58</time>
   <energy>
    <i name="e_fr_energy">     -6.88491568 </i>
    <i name="e_wo_entrp">     -6.88491568 </i>
    <i name="e_0_energy">     -6.88491568 </i>
   </energy>
  </scstep>
  <scstep>
   <time name="total">    5.66    5.66</time>
   <energy>
    <i name="e_fr_energy">     -6.88563362 </i>
    <i name="e_wo_entrp">     -6.88563362 </i>
    <i name="e_0_energy">     -6.88563362 </i>
   </energy>
  </scstep>
  <scstep>
   <time name="total">    5.70    5.71</time>
   <energy>
    <i name="e_fr_energy">     -6.88560313 </i>
    <i name="e_wo_entrp">     -6.88560313 </i>
    <i name="e_0_energy">     -6.88560313 </i>
   </energy>
  </scstep>
  <scstep>
   <time name="total">    5.43    5.43</time>
   <energy>
    <i name="e_fr_energy">     -6.88564695 </i>
    <i name="e_wo_entrp">     -6.88564695 </i>
    <i name="e_0_energy">     -6.88564695 </i>
   </energy>
  </scstep>
  <scstep>
   <time name="total">    5.47    5.47</time>
   <energy>
    <i name="e_fr_energy">     -6.88564701 </i>
    <i name="e_wo_entrp">     -6.88564701 </i>
    <i name="e_0_energy">     -6.88564701 </i>
   </energy>
  </scstep>
  <kpoints>
   <generation param="Gamma">
    <v type="int" name="divisions">       7        7        7 </v>
    <v name="usershift">      0.00000000       0.00000000       0.00000000 </v>
    <v name="genvec1">      0.14285714       0.00000000       0.00000000 </v>
    <v name="genvec2">      0.00000000       0.14285714       0.00000000 </v>
    <v name="genvec3">      0.00000000       0.00000000       0.14285714 </v>
    <v name="shift">      0.00000000       0.00000000       0.00000000 </v>
   </generation>
   <varray name="kpointlist" >
    <v>       0.00000000       0.00000000       0.00000000 </v>
    <v>       0.14285714       0.00000000       0.00000000 </v>
    <v>       0.28571429       0.00000000       0.00000000 </v>
    <v>       0.42857143       0.00000000       0.00000000 </v>
    <v>       0.00000000       0.14285714       0.00000000 </v>
    <v>       0.14285714       0.14285714       0.00000000 </v>
    <v>       0.28571429       0.14285714       0.00000000 </v>
    <v>       0.42857143       0.14285714       0.00000000 </v>
    <v>      -0.42857143       0.14285714       0.00000000 </v>
    <v>      -0.28571429       0.14285714       0.00000000 </v>
    <v>      -0.14285714       0.14285714       0.00000000 </v>
    <v>       0.00000000       0.28571429       0.00000000 </v>
    <v>       0.14285714       0.28571429       0.00000000 </v>
    <v>       0.28571429       0.28571429       0.00000000 </v>
    <v>       0.42857143       0.28571429       0.00000000 </v>
    <v>      -0.42857143       0.28571429       0.00000000 </v>
    <v>      -0.28571429       0.28571429       0.00000000 </v>
    <v>      -0.14285714       0.28571429       0.00000000 </v>
    <v>       0.00000000       0.42857143       0.00000000 </v>
    <v>       0.14285714       0.42857143       0.00000000 </v>
    <v>       0.28571429       0.42857143       0.00000000 </v>
    <v>       0.42857143       0.42857143       0.00000000 </v>
    <v>      -0.42857143       0.42857143       0.00000000 </v>
    <v>      -0.28571429       0.42857143       0.00000000 </v>
    <v>      -0.14285714       0.42857143       0.00000000 </v>
    <v>       0.00000000       0.00000000       0.14285714 </v>
    <v>       0.14285714       0.00000000       0.14285714 </v>
    <v>       0.28571429       0.00000000       0.14285714 </v>
    <v>       0.42857143       0.00000000       0.14285714 </v>
    <v>      -0.42857143       0.00000000       0.14285714 </v>
    <v>      -0.28571429       0.00000000       0.14285714 </v>
    <v>      -0.14285714       0.00000000       0.14285714 </v>
    <v>       0.00000000       0.14285714       0.14285714 </v>
    <v>       0.14285714       0.14285714       0.14285714 </v>
    <v>       0.28571429       0.14285714       0.14285714 </v>
    <v>       0.42857143       0.14285714       0.14285714 </v>
    <v>      -0.42857143       0.14285714       0.14285714 </v>
    <v>      -0.28571429       0.14285714       0.14285714 </v>
    <v>      -0.14285714       0.14285714       0.14285714 </v>
    <v>       0.00000000       0.28571429       0.14285714 </v>
    <v>       0.14285714       0.28571429       0.14285714 </v>
    <v>       0.28571429       0.28571429       0.14285714 </v>
    <v>       0.42857143       0.28571429       0.14285714 </v>
    <v>      -0.42857143       0.28571429       0.14285714 </v>
    <v>      -0.28571429       0.28571429       0.14285714 </v>
    <v>      -0.14285714       0.28571429       0.14285714 </v>
    <v>       0.00000000       0.42857143       0.14285714 </v>
    <v>       0.14285714       0.42857143       0.14285714 </v>
    <v>       0.28571429       0.42857143       0.14285714 </v>
    <v>       0.42857143       0.42857143       0.14285714 </v>
    <v>      -0.42857143       0.42857143       0.14285714 </v>
    <v>      -0.28571429       0.42857143       0.14285714 </v>
    <v>      -0.14285714       0.42857143       0.14285714 </v>
    <v>       0.00000000      -0.42857143       0.14285714 </v>
    <v>       0.14285714      -0.42857143       0.14285714 </v>
    <v>       0.28571429      -0.42857143       0.14285714 </v>
    <v>       0.42857143      -0.42857143       0.14285714 </v>
    <v>      -0.42857143      -0.42857143       0.14285714 </v>
    <v>      -0.28571429      -0.42857143       0.14285714 </v>
    <v>      -0.14285714      -0.42857143       0.14285714 </v>
    <v>       0.00000000      -0.28571429       0.14285714 </v>
    <v>       0.14285714      -0.28571429       0.14285714 </v>
    <v>       0.28571429      -0.28571429       0.14285714 </v>
    <v>       0.42857143      -0.28571429       0.14285714 </v>
    <v>      -0.42857143      -0.28571429       0.14285714 </v>
    <v>      -0.28571429      -0.28571429       0.14285714 </v>
    <v>      -0.14285714      -0.28571429       0.14285714 </v>
    <v>       0.00000000      -0.14285714       0.14285714 </v>
    <v>       0.14285714      -0.14285714       0.14285714 </v>
    <v>       0.28571429      -0.14285714       0.14285714 </v>
    <v>       0.42857143      -0.14285714       0.14285714 </v>
    <v>      -0.42857143      -0.14285714       0.14285714 </v>
    <v>      -0.28571429      -0.14285714       0.14285714 </v>
    <v>      -0.14285714      -0.14285714       0.14285714 </v>
    <v>       0.00000000       0.00000000       0.28571429 </v>
    <v>       0.14285714       0.00000000       0.28571429 </v>
    <v>       0.28571429       0.00000000       0.28571429 </v>
    <v>       0.42857143       0.00000000       0.28571429 </v>
    <v>      -0.42857143       0.00000000       0.28571429 </v>
    <v>      -0.28571429       0.00000000       0.28571429 </v>
    <v>      -0.14285714       0.00000000       0.28571429 </v>
    <v>       0.00000000       0.14285714       0.28571429 </v>
    <v>       0.14285714       0.14285714       0.28571429 </v>
    <v>       0.28571429       0.14285714       0.28571429 </v>
    <v>       0.42857143       0.14285714       0.28571429 </v>
    <v>      -0.42857143       0.14285714       0.28571429 </v>
    <v>      -0.28571429       0.14285714       0.28571429 </v>
    <v>      -0.14285714       0.14285714       0.28571429 </v>
    <v>       0.00000000       0.28571429       0.28571429 </v>
    <v>       0.14285714       0.28571429       0.28571429 </v>
    <v>       0.28571429       0.28571429       0.28571429 </v>
    <v>       0.42857143       0.28571429       0.28571429 </v>
    <v>      -0.42857143       0.28571429       0.28571429 </v>
    <v>      -0.28571429       0.28571429       0.28571429 </v>
    <v>      -0.14285714       0.28571429       0.28571429 </v>
    <v>       0.00000000       0.42857143       0.28571429 </v>
    <v>       0.14285714       0.42857143       0.28571429 </v>
    <v>       0.28571429       0.42857143       0.28571429 </v>
    <v>       0.42857143       0.42857143       0.28571429 </v>
    <v>      -0.42857143       0.42857143       0.28571429 </v>
    <v>      -0.28571429       0.42857143       0.28571429 </v>
    <v>      -0.14285714       0.42857143       0.28571429 </v>
    <v>       0.00000000      -0.42857143       0.28571429 </v>
    <v>       0.14285714      -0.42857143       0.28571429 </v>
    <v>       0.28571429      -0.42857143       0.28571429 </v>
    <v>       0.42857143      -0.42857143       0.28571429 </v>
    <v>      -0.42857143      -0.42857143       0.28571429 </v>
    <v>      -0.28571429      -0.42857143       0.28571429 </v>
    <v>      -0.14285714      -0.42857143       0.28571429 </v>
    <v>       0.00000000      -0.28571429       0.28571429 </v>
    <v>       0.14285714      -0.28571429       0.28571429 </v>
    <v>       0.28571429      -0.28571429       0.28571429 </v>
    <v>       0.42857143      -0.28571429       0.28571429 </v>
    <v>      -0.42857143      -0.28571429       0.28571429 </v>
    <v>      -0.28571429      -0.28571429       0.28571429 </v>
    <v>      -0.14285714      -0.28571429       0.28571429 </v>
    <v>       0.00000000      -0.14285714       0.28571429 </v>
    <v>       0.14285714      -0.14285714       0.28571429 </v>
    <v>       0.28571429      -0.14285714       0.28571429 </v>
    <v>       0.42857143      -0.14285714       0.28571429 </v>
    <v>      -0.42857143      -0.14285714       0.28571429 </v>
    <v>      -0.28571429      -0.14285714       0.28571429 </v>
    <v>      -0.14285714      -0.14285714       0.28571429 </v>
    <v>       0.00000000       0.00000000       0.42857143 </v>
    <v>       0.14285714       0.00000000       0.42857143 </v>
    <v>       0.28571429       0.00000000       0.42857143 </v>
    <v>       0.42857143       0.00000000       0.42857143 </v>
    <v>      -0.42857143       0.00000000       0.42857143 </v>
    <v>      -0.28571429       0.00000000       0.42857143 </v>
    <v>      -0.14285714       0.00000000       0.42857143 </v>
[...]
       <r>     2.3524     4.3103    18.9335 </r>
       <r>     2.3724     4.4281    19.0222 </r>
       <r>     2.3924     4.5566    19.1134 </r>
       <r>     2.4124     4.6911    19.2073 </r>
       <r>     2.4324     4.8268    19.3039 </r>
       <r>     2.4525     4.9588    19.4032 </r>
       <r>     2.4725     5.0822    19.5049 </r>
       <r>     2.4925     5.1925    19.6089 </r>
       <r>     2.5125     5.2861    19.7147 </r>
       <r>     2.5325     5.3599    19.8220 </r>
       <r>     2.5526     5.4121    19.9304 </r>
       <r>     2.5726     5.4418    20.0393 </r>
       <r>     2.5926     5.4494    20.1484 </r>
       <r>     2.6126     5.4365    20.2573 </r>
       <r>     2.6326     5.4057    20.3655 </r>
       <r>     2.6527     5.3610    20.4728 </r>
       <r>     2.6727     5.3066    20.5791 </r>
       <r>     2.6927     5.2475    20.6841 </r>
       <r>     2.7127     5.1890    20.7880 </r>
       <r>     2.7327     5.1362    20.8908 </r>
       <r>     2.7528     5.0935    20.9928 </r>
       <r>     2.7728     5.0649    21.0942 </r>
       <r>     2.7928     5.0533    21.1954 </r>
       <r>     2.8128     5.0605    21.2967 </r>
       <r>     2.8328     5.0870    21.3985 </r>
       <r>     2.8529     5.1321    21.5013 </r>
       <r>     2.8729     5.1939    21.6052 </r>
       <r>     2.8929     5.2696    21.7107 </r>
       <r>     2.9129     5.3555    21.8180 </r>
       <r>     2.9329     5.4475    21.9270 </r>
       <r>     2.9530     5.5413    22.0379 </r>
       <r>     2.9730     5.6329    22.1507 </r>
       <r>     2.9930     5.7185    22.2652 </r>
       <r>     3.0130     5.7952    22.3812 </r>
       <r>     3.0330     5.8607    22.4986 </r>
       <r>     3.0531     5.9136    22.6169 </r>
       <r>     3.0731     5.9536    22.7361 </r>
       <r>     3.0931     5.9810    22.8559 </r>
       <r>     3.1131     5.9966    22.9759 </r>
       <r>     3.1331     6.0021    23.0961 </r>
       <r>     3.1532     5.9991    23.2162 </r>
       <r>     3.1732     5.9895    23.3361 </r>
       <r>     3.1932     5.9752    23.4557 </r>
       <r>     3.2132     5.9578    23.5750 </r>
       <r>     3.2332     5.9389    23.6939 </r>
       <r>     3.2533     5.9195    23.8124 </r>
       <r>     3.2733     5.9004    23.9305 </r>
       <r>     3.2933     5.8819    24.0483 </r>
       <r>     3.3133     5.8640    24.1657 </r>
       <r>     3.3333     5.8462    24.2827 </r>
       <r>     3.3534     5.8277    24.3994 </r>
       <r>     3.3734     5.8072    24.5157 </r>
       <r>     3.3934     5.7835    24.6314 </r>
       <r>     3.4134     5.7551    24.7467 </r>
       <r>     3.4334     5.7205    24.8612 </r>
       <r>     3.4535     5.6787    24.9749 </r>
       <r>     3.4735     5.6287    25.0876 </r>
       <r>     3.4935     5.5705    25.1991 </r>
       <r>     3.5135     5.5042    25.3093 </r>
       <r>     3.5335     5.4307    25.4180 </r>
       <r>     3.5536     5.3516    25.5251 </r>
       <r>     3.5736     5.2687    25.6306 </r>
       <r>     3.5936     5.1842    25.7344 </r>
       <r>     3.6136     5.1006    25.8365 </r>
       <r>     3.6336     5.0201    25.9370 </r>
       <r>     3.6537     4.9448    26.0360 </r>
       <r>     3.6737     4.8764    26.1336 </r>
       <r>     3.6937     4.8164    26.2301 </r>
       <r>     3.7137     4.7657    26.3255 </r>
       <r>     3.7337     4.7246    26.4201 </r>
       <r>     3.7538     4.6931    26.5140 </r>
       <r>     3.7738     4.6711    26.6075 </r>
       <r>     3.7938     4.6578    26.7008 </r>
       <r>     3.8138     4.6526    26.7939 </r>
       <r>     3.8338     4.6544    26.8871 </r>
       <r>     3.8539     4.6623    26.9804 </r>
       <r>     3.8739     4.6751    27.0740 </r>
       <r>     3.8939     4.6916    27.1680 </r>
       <r>     3.9139     4.7105    27.2623 </r>
       <r>     3.9339     4.7306    27.3570 </r>
       <r>     3.9540     4.7506    27.4521 </r>
       <r>     3.9740     4.7691    27.5476 </r>
       <r>     3.9940     4.7848    27.6434 </r>
       <r>     4.0140     4.7966    27.7394 </r>
       <r>     4.0340     4.8034    27.8355 </r>
       <r>     4.0541     4.8044    27.9317 </r>
       <r>     4.0741     4.7991    28.0278 </r>
       <r>     4.0941     4.7870    28.1236 </r>
       <r>     4.1141     4.7680    28.2191 </r>
       <r>     4.1341     4.7422    28.3140 </r>
       <r>     4.1542     4.7097    28.4083 </r>
       <r>     4.1742     4.6709    28.5018 </r>
       <r>     4.1942     4.6259    28.5944 </r>
       <r>     4.2142     4.5751    28.6860 </r>
       <r>     4.2342     4.5184    28.7765 </r>
       <r>     4.2543     4.4559    28.8657 </r>
       <r>     4.2743     4.3876    28.9535 </r>
       <r>     4.2943     4.3134    29.0399 </r>
       <r>     4.3143     4.2334    29.1247 </r>
       <r>     4.3343     4.1479    29.2077 </r>
       <r>     4.3544     4.0574    29.2889 </r>
       <r>     4.3744     3.9629    29.3683 </r>
       <r>     4.3944     3.8659    29.4457 </r>
       <r>     4.4144     3.7682    29.5211 </r>
       <r>     4.4344     3.6723    29.5946 </r>
       <r>     4.4545     3.5806    29.6663 </r>
       <r>     4.4745     3.4958    29.7363 </r>
       <r>     4.4945     3.4203    29.8048 </r>
       <r>     4.5145     3.3559    29.8719 </r>
       <r>     4.5345     3.3041    29.9381 </r>
       <r>     4.5546     3.2652    30.0035 </r>
       <r>     4.5746     3.2384    30.0683 </r>
       <r>     4.5946     3.2220    30.1328 </r>
       <r>     4.6146     3.2134    30.1971 </r>
       <r>     4.6346     3.2090    30.2614 </r>
       <r>     4.6547     3.2051    30.3255 </r>
       <r>     4.6747     3.1977    30.3896 </r>
       <r>     4.6947     3.1832    30.4533 </r>
       <r>     4.7147     3.1586    30.5165 </r>
       <r>     4.7347     3.1219    30.5790 </r>
       <r>     4.7548     3.0722    30.6405 </r>
       <r>     4.7748     3.0095    30.7008 </r>
       <r>     4.7948     2.9350    30.7595 </r>
       <r>     4.8148     2.8505    30.8166 </r>
       <r>     4.8348     2.7585    30.8718 </r>
       <r>     4.8549     2.6617    30.9251 </r>
       <r>     4.8749     2.5626    30.9764 </r>
       <r>     4.8949     2.4637    31.0257 </r>
       <r>     4.9149     2.3669    31.0731 </r>
       <r>     4.9349     2.2738    31.1187 </r>
       <r>     4.9550     2.1854    31.1624 </r>
       <r>     4.9750     2.1023    31.2045 </r>
       <r>     4.9950     2.0246    31.2450 </r>
       <r>     5.0150     1.9523    31.2841 </r>
       <r>     5.0350     1.8849    31.3218 </r>
       <r>     5.0551     1.8218    31.3583 </r>
       <r>     5.0751     1.7621    31.3936 </r>
       <r>     5.0951     1.7050    31.4277 </r>
       <r>     5.1151     1.6495    31.4608 </r>
       <r>     5.1351     1.5944    31.4927 </r>
       <r>     5.1552     1.5390    31.5235 </r>
       <r>     5.1752     1.4823    31.5532 </r>
       <r>     5.1952     1.4240    31.5817 </r>
       <r>     5.2152     1.3636    31.6090 </r>
       <r>     5.2352     1.3012    31.6350 </r>
       <r>     5.2553     1.2373    31.6598 </r>
       <r>     5.2753     1.1724    31.6833 </r>
       <r>     5.2953     1.1074    31.7054 </r>
       <r>     5.3153     1.0434    31.7263 </r>
       <r>     5.3353     0.9813    31.7460 </r>
       <r>     5.3554     0.9220    31.7644 </r>
       <r>     5.3754     0.8663    31.7818 </r>
       <r>     5.3954     0.8146    31.7981 </r>
       <r>     5.4154     0.7674    31.8134 </r>
       <r>     5.4354     0.7244    31.8279 </r>
       <r>     5.4555     0.6854    31.8417 </r>
       <r>     5.4755     0.6499    31.8547 </r>
       <r>     5.4955     0.6171    31.8670 </r>
       <r>     5.5155     0.5863    31.8788 </r>
       <r>     5.5355     0.5566    31.8899 </r>
       <r>     5.5556     0.5273    31.9005 </r>
       <r>     5.5756     0.4978    31.9104 </r>
       <r>     5.5956     0.4676    31.9198 </r>
       <r>     5.6156     0.4365    31.9285 </r>
       <r>     5.6356     0.4046    31.9366 </r>
       <r>     5.6557     0.3721    31.9441 </r>
       <r>     5.6757     0.3395    31.9509 </r>
       <r>     5.6957     0.3072    31.9570 </r>
       <r>     5.7157     0.2758    31.9626 </r>
       <r>     5.7357     0.2461    31.9675 </r>
       <r>     5.7558     0.2186    31.9719 </r>
       <r>     5.7758     0.1937    31.9757 </r>
       <r>     5.7958     0.1718    31.9792 </r>
       <r>     5.8158     0.1531    31.9822 </r>
       <r>     5.8358     0.1377    31.9850 </r>
       <r>     5.8559     0.1256    31.9875 </r>
       <r>     5.8759     0.1167    31.9898 </r>
       <r>     5.8959     0.1110    31.9921 </r>
       <r>     5.9159     0.1083    31.9942 </r>
       <r>     5.9359     0.1087    31.9964 </r>
       <r>     5.9560     0.1119    31.9987 </r>
       <r>     5.9760     0.1179    32.0010 </r>
       <r>     5.9960     0.1268    32.0036 </r>
       <r>     6.0160     0.1383    32.0063 </r>
       <r>     6.0360     0.1524    32.0094 </r>
       <r>     6.0561     0.1691    32.0128 </r>
       <r>     6.0761     0.1881    32.0165 </r>
       <r>     6.0961     0.2094    32.0207 </r>
       <r>     6.1161     0.2328    32.0254 </r>
       <r>     6.1361     0.2582    32.0305 </r>
       <r>     6.1562     0.2856    32.0363 </r>
       <r>     6.1762     0.3147    32.0426 </r>
       <r>     6.1962     0.3458    32.0495 </r>
       <r>     6.2162     0.3789    32.0571 </r>
       <r>     6.2362     0.4139    32.0654 </r>
       <r>     6.2563     0.4510    32.0744 </r>
       <r>     6.2763     0.4903    32.0842 </r>
       <r>     6.2963     0.5315    32.0948 </r>
       <r>     6.3163     0.5747    32.1064 </r>
       <r>     6.3363     0.6197    32.1188 </r>
       <r>     6.3564     0.6661    32.1321 </r>
       <r>     6.3764     0.7137    32.1464 </r>
       <r>     6.3964     0.7622    32.1616 </r>
       <r>     6.4164     0.8115    32.1779 </r>
       <r>     6.4364     0.8616    32.1951 </r>
       <r>     6.4565     0.9125    32.2134 </r>
       <r>     6.4765     0.9646    32.2327 </r>
       <r>     6.4965     1.0183    32.2531 </r>
       <r>     6.5165     1.0741    32.2746 </r>
       <r>     6.5365     1.1328    32.2973 </r>
       <r>     6.5566     1.1947    32.3212 </r>
       <r>     6.5766     1.2601    32.3464 </r>
       <r>     6.5966     1.3293    32.3730 </r>
       <r>     6.6166     1.4019    32.4011 </r>
       <r>     6.6366     1.4773    32.4307 </r>
       <r>     6.6567     1.5547    32.4618 </r>
       <r>     6.6767     1.6330    32.4945 </r>
       <r>     6.6967     1.7111    32.5288 </r>
       <r>     6.7167     1.7879    32.5645 </r>
       <r>     6.7367     1.8626    32.6018 </r>
       <r>     6.7568     1.9349    32.6406 </r>
       <r>     6.7768     2.0046    32.6807 </r>
       <r>     6.7968     2.0722    32.7222 </r>
       <r>     6.8168     2.1383    32.7650 </r>
       <r>     6.8368     2.2039    32.8091 </r>
       <r>     6.8569     2.2699    32.8546 </r>
       <r>     6.8769     2.3370    32.9014 </r>
       <r>     6.8969     2.4057    32.9495 </r>
       <r>     6.9169     2.4759    32.9991 </r>
       <r>     6.9369     2.5468    33.0501 </r>
       <r>     6.9570     2.6174    33.1025 </r>
       <r>     6.9770     2.6861    33.1562 </r>
       <r>     6.9970     2.7509    33.2113 </r>
       <r>     7.0170     2.8100    33.2676 </r>
       <r>     7.0370     2.8617    33.3249 </r>
       <r>     7.0571     2.9044    33.3830 </r>
       <r>     7.0771     2.9373    33.4418 </r>
       <r>     7.0971     2.9601    33.5011 </r>
       <r>     7.1171     2.9732    33.5606 </r>
       <r>     7.1371     2.9776    33.6202 </r>
       <r>     7.1572     2.9752    33.6798 </r>
       <r>     7.1772     2.9681    33.7392 </r>
       <r>     7.1972     2.9593    33.7984 </r>
       <r>     7.2172     2.9518    33.8575 </r>
       <r>     7.2372     2.9490    33.9166 </r>
       <r>     7.2573     2.9544    33.9757 </r>
       <r>     7.2773     2.9712    34.0352 </r>
       <r>     7.2973     3.0026    34.0953 </r>
       <r>     7.3173     3.0512    34.1564 </r>
       <r>     7.3373     3.1192    34.2188 </r>
       <r>     7.3574     3.2079    34.2831 </r>
       <r>     7.3774     3.3180    34.3495 </r>
       <r>     7.3974     3.4490    34.4185 </r>
       <r>     7.4174     3.5998    34.4906 </r>
       <r>     7.4374     3.7680    34.5660 </r>
       <r>     7.4575     3.9505    34.6451 </r>
       <r>     7.4775     4.1435    34.7281 </r>
       <r>     7.4975     4.3425    34.8150 </r>
       <r>     7.5175     4.5423    34.9060 </r>
       <r>     7.5375     4.7378    35.0008 </r>
       <r>     7.5576     4.9239    35.0994 </r>
       <r>     7.5776     5.0956    35.2014 </r>
       <r>     7.5976     5.2490    35.3065 </r>
       <r>     7.6176     5.3807    35.4142 </r>
       <r>     7.6376     5.4888    35.5241 </r>
       <r>     7.6577     5.5725    35.6357 </r>
       <r>     7.6777     5.6325    35.7484 </r>
       <r>     7.6977     5.6707    35.8619 </r>
       <r>     7.7177     5.6903    35.9759 </r>
       <r>     7.7377     5.6951    36.0899 </r>
       <r>     7.7578     5.6895    36.2038 </r>
       <r>     7.7778     5.6780    36.3175 </r>
       <r>     7.7978     5.6647    36.4309 </r>
       <r>     7.8178     5.6531    36.5440 </r>
       <r>     7.8378     5.6459    36.6571 </r>
       <r>     7.8579     5.6446    36.7701 </r>
       <r>     7.8779     5.6499    36.8832 </r>
       <r>     7.8979     5.6615    36.9965 </r>
       <r>     7.9179     5.6782    37.1102 </r>
       <r>     7.9379     5.6987    37.2243 </r>
       <r>     7.9580     5.7209    37.3388 </r>
       <r>     7.9780     5.7431    37.4538 </r>
       <r>     7.9980     5.7633    37.5692 </r>
       <r>     8.0180     5.7800    37.6849 </r>
       <r>     8.0380     5.7917    37.8009 </r>
       <r>     8.0581     5.7974    37.9169 </r>
       <r>     8.0781     5.7959    38.0329 </r>
       <r>     8.0981     5.7865    38.1488 </r>
       <r>     8.1181     5.7684    38.2643 </r>
       <r>     8.1381     5.7412    38.3792 </r>
       <r>     8.1582     5.7045    38.4934 </r>
       <r>     8.1782     5.6582    38.6067 </r>
       <r>     8.1982     5.6024    38.7189 </r>
       <r>     8.2182     5.5380    38.8297 </r>
       <r>     8.2382     5.4659    38.9392 </r>
       <r>     8.2583     5.3879    39.0470 </r>
       <r>     8.2783     5.3059    39.1532 </r>
       <r>     8.2983     5.2225    39.2578 </r>
       <r>     8.3183     5.1402    39.3607 </r>
       <r>     8.3383     5.0620    39.4620 </r>
       <r>     8.3584     4.9902    39.5620 </r>
       <r>     8.3784     4.9272    39.6606 </r>
       <r>     8.3984     4.8746    39.7582 </r>
       <r>     8.4184     4.8337    39.8550 </r>
       <r>     8.4384     4.8047    39.9511 </r>
       <r>     8.4585     4.7874    40.0470 </r>
       <r>     8.4785     4.7810    40.1427 </r>
       <r>     8.4985     4.7838    40.2385 </r>
       <r>     8.5185     4.7943    40.3345 </r>
       <r>     8.5385     4.8105    40.4308 </r>
       <r>     8.5586     4.8307    40.5275 </r>
       <r>     8.5786     4.8533    40.6246 </r>
       <r>     8.5986     4.8776    40.7223 </r>
       <r>     8.6186     4.9032    40.8204 </r>
       <r>     8.6386     4.9305    40.9192 </r>
       <r>     8.6587     4.9606    41.0185 </r>
       <r>     8.6787     4.9951    41.1185 </r>
       <r>     8.6987     5.0362    41.2193 </r>
       <r>     8.7187     5.0862    41.3211 </r>
       <r>     8.7387     5.1472    41.4242 </r>
       <r>     8.7588     5.2211    41.5287 </r>
       <r>     8.7788     5.3091    41.6350 </r>
       <r>     8.7988     5.4117    41.7433 </r>
       <r>     8.8188     5.5283    41.8540 </r>
       <r>     8.8388     5.6575    41.9673 </r>
       <r>     8.8589     5.7969    42.0833 </r>
       <r>     8.8789     5.9433    42.2023 </r>
       <r>     8.8989     6.0932    42.3243 </r>
       <r>     8.9189     6.2425    42.4493 </r>
       <r>     8.9389     6.3874    42.5771 </r>
       <r>     8.9590     6.5239    42.7078 </r>
       <r>     8.9790     6.6490    42.8409 </r>
       <r>     8.9990     6.7599    42.9762 </r>
       <r>     9.0190     6.8548    43.1134 </r>
       <r>     9.0390     6.9328    43.2522 </r>
       <r>     9.0591     6.9935    43.3922 </r>
       <r>     9.0791     7.0377    43.5331 </r>
       <r>     9.0991     7.0664    43.6746 </r>
       <r>     9.1191     7.0814    43.8164 </r>
       <r>     9.1391     7.0851    43.9582 </r>
       <r>     9.1592     7.0797    44.0999 </r>
       <r>     9.1792     7.0679    44.2414 </r>
       <r>     9.1992     7.0521    44.3826 </r>
       <r>     9.2192     7.0347    44.5235 </r>
       <r>     9.2392     7.0177    44.6640 </r>
       <r>     9.2593     7.0027    44.8042 </r>
       <r>     9.2793     6.9907    44.9441 </r>
       <r>     9.2993     6.9821    45.0839 </r>
       <r>     9.3193     6.9765    45.2236 </r>
       <r>     9.3393     6.9731    45.3632 </r>
       <r>     9.3594     6.9702    45.5027 </r>
       <r>     9.3794     6.9655    45.6422 </r>
       <r>     9.3994     6.9564    45.7814 </r>
       <r>     9.4194     6.9401    45.9204 </r>
       <r>     9.4394     6.9136    46.0588 </r>
       <r>     9.4595     6.8743    46.1964 </r>
       <r>     9.4795     6.8198    46.3329 </r>
       <r>     9.4995     6.7487    46.4680 </r>
       <r>     9.5195     6.6600    46.6014 </r>
       <r>     9.5395     6.5537    46.7326 </r>
       <r>     9.5596     6.4309    46.8613 </r>
       <r>     9.5796     6.2932    46.9873 </r>
       <r>     9.5996     6.1429    47.1103 </r>
       <r>     9.6196     5.9832    47.2301 </r>
       <r>     9.6396     5.8172    47.3465 </r>
       <r>     9.6597     5.6486    47.4596 </r>
       <r>     9.6797     5.4807    47.5693 </r>
       <r>     9.6997     5.3169    47.6758 </r>
       <r>     9.7197     5.1605    47.7791 </r>
       <r>     9.7397     5.0141    47.8795 </r>
       <r>     9.7598     4.8802    47.9772 </r>
       <r>     9.7798     4.7611    48.0725 </r>
       <r>     9.7998     4.6583    48.1658 </r>
       <r>     9.8198     4.5731    48.2573 </r>
       <r>     9.8398     4.5065    48.3475 </r>
       <r>     9.8599     4.4587    48.4368 </r>
       <r>     9.8799     4.4296    48.5255 </r>
       <r>     9.8999     4.4184    48.6139 </r>
       <r>     9.9199     4.4238    48.7025 </r>
       <r>     9.9399     4.4438    48.7915 </r>
       <r>     9.9600     4.4761    48.8811 </r>
       <r>     9.9800     4.5179    48.9715 </r>
       <r>    10.0000     4.5661    49.0629 </r>
      </set>
     </set>
    </array>
   </total>
  </dos>
 </calculation>
 <structure name="finalpos" >
  <crystal>
   <varray name="basis" >
    <v>       5.46503124       0.00000000       0.00000000 </v>
    <v>       0.00000000       5.46503124       0.00000000 </v>
    <v>       0.00000000       0.00000000       5.46503124 </v>
   </varray>
   <i name="volume">    163.22171868 </i>
   <varray name="rec_basis" >
    <v>       0.18298157       0.00000000       0.00000000 </v>
    <v>       0.00000000       0.18298157       0.00000000 </v>
    <v>       0.00000000       0.00000000       0.18298157 </v>
   </varray>
  </crystal>
  <varray name="positions" >
   <v>       0.00000000       0.00000000       0.00000000 </v>
   <v>       0.00000000       0.50000000       0.50000000 </v>
   <v>       0.45000000       0.50000000       0.00000000 </v>
   <v>       0.50000000       0.00000000       0.50000000 </v>
   <v>       0.75000000       0.25000000       0.75000000 </v>
   <v>       0.25000000       0.25000000       0.25000000 </v>
   <v>       0.25000000       0.75000000       0.75000000 </v>
   <v>       0.75000000       0.75000000       0.25000000 </v>
  </varray>
 </structure>
</modeling>
