 vasp.5.4.4.18Apr17-6-g9f103f2a35 (build Mar 30 2021 17:29:28) complex           
 executed on             LinuxGNU date 2021.03.31  17:11:03
 running on    6 total cores
 each image running on    2 cores
 distrk:  each k-point on    2 cores,    1 groups
 distr:  one band on NCORES_PER_BAND=   1 cores,    2 groups


--------------------------------------------------------------------------------------------------------


 INCAR:
 POTCAR:    PAW_PBE H 15Jun2001                   
 POTCAR:    PAW_PBE N 08Apr2002                   
 POTCAR:    PAW_PBE H 15Jun2001                   
   VRHFIN =H: ultrasoft test                                                    
   LEXCH  = PE                                                                  
   EATOM  =    12.4884 eV,    0.9179 Ry                                         
                                                                                
   TITEL  = PAW_PBE H 15Jun2001                                                 
   LULTRA =        F    use ultrasoft PP ?                                      
   IUNSCR =        0    unscreen: 0-lin 1-nonlin 2-no                           
   RPACOR =    0.000    partial core radius                                     
   POMASS =    1.000; ZVAL   =    1.000    mass and valenz                      
   RCORE  =    1.100    outmost cutoff radius                                   
   RWIGS  =    0.700; RWIGS  =    0.370    wigner-seitz radius (au A)           
   ENMAX  =  250.000; ENMIN  =  200.000 eV                                      
   RCLOC  =    0.701    cutoff for local pot                                    
   LCOR   =        T    correct aug charges                                     
   LPAW   =        T    paw PP                                                  
   EAUG   =  400.000                                                            
   RMAX   =    1.123    core radius for proj-oper                               
   RAUG   =    1.200    factor for augmentation sphere                          
   RDEP   =    1.112    radius for radial grids                                 
   RDEPT  =    0.926    core radius for aug-charge                              
                                                                                
   Atomic configuration                                                         
    2 entries                                                                   
     n  l   j            E        occ.                                          
     1  0  0.50        -6.4927   1.0000                                         
     2  1  0.50        -3.4015   0.0000                                         
   Description                                                                  
     l       E           TYP  RCUT    TYP  RCUT                                 
     0     -6.4927494     23  1.100                                             
     0      6.8029130     23  1.100                                             
     1     -4.0817478     23  1.100                                             
  local pseudopotential read in
  atomic valenz-charges read in
  non local Contribution for L=           0  read in
    real space projection operators read in
  non local Contribution for L=           0  read in
    real space projection operators read in
  non local Contribution for L=           1  read in
    real space projection operators read in
    PAW grid and wavefunctions read in

   number of l-projection  operators is LMAX  =           3
   number of lm-projection operators is LMMAX =           5

 POTCAR:    PAW_PBE N 08Apr2002                   
   VRHFIN =N: s2p3                                                              
   LEXCH  = PE                                                                  
   EATOM  =   264.5486 eV,   19.4438 Ry                                         
                                                                                
   TITEL  = PAW_PBE N 08Apr2002                                                 
   LULTRA =        F    use ultrasoft PP ?                                      
   IUNSCR =        1    unscreen: 0-lin 1-nonlin 2-no                           
   RPACOR =    1.200    partial core radius                                     
   POMASS =   14.001; ZVAL   =    5.000    mass and valenz                      
   RCORE  =    1.500    outmost cutoff radius                                   
   RWIGS  =    1.400; RWIGS  =    0.741    wigner-seitz radius (au A)           
   ENMAX  =  400.000; ENMIN  =  300.000 eV                                      
   ICORE  =        2    local potential                                         
   LCOR   =        T    correct aug charges                                     
   LPAW   =        T    paw PP                                                  
   EAUG   =  627.112                                                            
   DEXC   =    0.000                                                            
   RMAX   =    1.529    core radius for proj-oper                               
   RAUG   =    1.300    factor for augmentation sphere                          
   RDEP   =    1.514    radius for radial grids                                 
   RDEPT  =    1.338    core radius for aug-charge                              
                                                                                
   Atomic configuration                                                         
    4 entries                                                                   
     n  l   j            E        occ.                                          
     1  0  0.50      -384.7179   2.0000                                         
     2  0  0.50       -18.5828   2.0000                                         
     2  1  0.50        -7.0898   3.0000                                         
     3  2  1.50        -6.8029   0.0000                                         
   Description                                                                  
     l       E           TYP  RCUT    TYP  RCUT                                 
     0    -18.5828119     23  1.200                                             
     0    -13.5018863     23  1.200                                             
     1     -7.0897853     23  1.500                                             
     1      9.5240782     23  1.500                                             
     2     -6.8029130      7  1.500                                             
  local pseudopotential read in
  partial core-charges read in
  partial kinetic energy density read in
  atomic valenz-charges read in
  non local Contribution for L=           0  read in
    real space projection operators read in
  non local Contribution for L=           0  read in
    real space projection operators read in
  non local Contribution for L=           1  read in
    real space projection operators read in
  non local Contribution for L=           1  read in
    real space projection operators read in
    PAW grid and wavefunctions read in

   number of l-projection  operators is LMAX  =           4
   number of lm-projection operators is LMMAX =           8

  PAW_PBE H 15Jun2001                   :
 energy of atom  1       EATOM=  -12.4884
 kinetic energy error for atom=    0.0098 (will be added to EATOM!!)
  PAW_PBE N 08Apr2002                   :
 energy of atom  2       EATOM= -264.5486
 kinetic energy error for atom=    0.0736 (will be added to EATOM!!)


 POSCAR: # Compound: H3N. Old comment: H3N       
  positions in direct lattice
  No initial velocities read in
 exchange correlation table for  LEXCH =        8
   RHO(1)=    0.500       N(1)  =     2000
   RHO(2)=  100.500       N(2)  =     4000

 VTST: version 3.2, (02/03/18)

 CHAIN: initializing optimizer
 
 OPT: Using LBFGS optimizer
 OPT: LBFGS, Init
 OPT: LBFGS, MEMORY             20
 OPT: LBFGS, IMAGES              3
 OPT: LBFGS, MAXMOVE      0.200000
 OPT: LBFGS, LGLOBAL      T
 OPT: LBFGS, INVCURV      0.010000
 OPT: LBFGS, LLINEOPT      F
 OPT: LBFGS, FDSTEP       0.005000
 OPT: LBFGS, LAUTOSCALE      T
 OPT: LBFGS, DAMPING      2.000000
 
 CHAIN: Read ICHAIN            0
 CHAIN: Running the NEB
 NEB:          SPRING     -5.000000
 NEB:          LCLIMB      T
 NEB:     LTANGENTOLD      F
 NEB:           LDNEB      F
 NEB:        LDNEBORG      F
 NEB:        LNEBCELL      F
 NEB:          EFIRST      0.000000
 NEB:           ELAST      0.000000

 POSCAR: # Compound: H3N. Old comment: H3N       
  positions in direct lattice
  No initial velocities read in

 POSCAR: # Compound: H3N. Old comment: H3N       
  positions in direct lattice
  No initial velocities read in



--------------------------------------------------------------------------------------------------------


 ion  position               nearest neighbor table
   1  0.636  0.567  0.500-   4 0.95
   2  0.500  0.365  0.500-   4 0.95
   3  0.364  0.567  0.500-   4 0.95
   4  0.500  0.500  0.500-   1 0.95   3 0.95   2 0.95

  LATTYP: Found a simple orthorhombic cell.
 ALAT       =     6.0000000000
 B/A-ratio  =     1.1666666667
 C/A-ratio  =     1.3333333333
  
  Lattice vectors:
  
 A1 = (   6.0000000000,   0.0000000000,   0.0000000000)
 A2 = (   0.0000000000,   7.0000000000,   0.0000000000)
 A3 = (   0.0000000000,   0.0000000000,   8.0000000000)


Analysis of symmetry for initial positions (statically):
=====================================================================
 Subroutine PRICEL returns:
 Original cell was already a primitive cell.
 

 Routine SETGRP: Setting up the symmetry group for a 
 simple orthorhombic supercell.


 Subroutine GETGRP returns: Found  4 space group operations
 (whereof  4 operations were pure point group operations)
 out of a pool of  8 trial point group operations.


The static configuration has the point symmetry C_2v.


Analysis of symmetry for dynamics (positions and initial velocities):
=====================================================================
 Subroutine PRICEL returns:
 Original cell was already a primitive cell.
 

 Routine SETGRP: Setting up the symmetry group for a 
 simple orthorhombic supercell.


 Subroutine GETGRP returns: Found  4 space group operations
 (whereof  4 operations were pure point group operations)
 out of a pool of  8 trial point group operations.


The dynamic configuration has the point symmetry C_2v.


 Subroutine INISYM returns: Found  4 space group operations
 (whereof  4 operations are pure point group operations),
 and found     1 'primitive' translations



 KPOINTS: # No comment                            

Automatic generation of k-mesh.
Space group operators:
 irot       det(A)        alpha          n_x          n_y          n_z        tau_x        tau_y        tau_z
    1     1.000000     0.000000     1.000000     0.000000     0.000000     0.000000     0.000000     0.000000
    2    -1.000000   180.000000     0.000000     0.000000     1.000000     0.000000     0.000000     0.000000
    3     1.000000   180.000000     0.000000     1.000000     0.000000     0.000000     0.000000     0.000000
    4    -1.000000   180.000000     1.000000     0.000000     0.000000     0.000000     0.000000     0.000000
 
 Subroutine IBZKPT returns following result:
 ===========================================
 
 Found      1 irreducible k-points:
 
 Following reciprocal coordinates:
            Coordinates               Weight
  0.000000  0.000000  0.000000      1.000000
 
 Following cartesian coordinates:
            Coordinates               Weight
  0.000000  0.000000  0.000000      1.000000
 


--------------------------------------------------------------------------------------------------------




 Dimension of arrays:
   k-points           NKPTS =      1   k-points in BZ     NKDIM =      1   number of bands    NBANDS=      8
   number of dos      NEDOS =    301   number of ions     NIONS =      4
   non local maximal  LDIM  =      4   non local SUM 2l+1 LMDIM =      8
   total plane-waves  NPLWV =  43200
   max r-space proj   IRMAX =      1   max aug-charges    IRDMAX=   1781
   dimension x,y,z NGX =    30 NGY =   36 NGZ =   40
   dimension x,y,z NGXF=    60 NGYF=   72 NGZF=   80
   support grid    NGXF=    60 NGYF=   72 NGZF=   80
   ions per type =               3   1
   NGX,Y,Z   is equivalent  to a cutoff of   8.31,  8.55,  8.31 a.u.
   NGXF,Y,Z  is equivalent  to a cutoff of  16.62, 17.10, 16.62 a.u.

 SYSTEM =  unknown system                          
 POSCAR =  # Compound: H3N. Old comment: H3N       

 Startparameter for this run:
   NWRITE =      2    write-flag & timer
   PREC   = normal    normal or accurate (medium, high low for compatibility)
   ISTART =      1    job   : 0-new  1-cont  2-samecut
   ICHARG =      0    charge: 1-file 2-atom 10-const
   ISPIN  =      1    spin polarized calculation?
   LNONCOLLINEAR =      F non collinear calculations
   LSORBIT =      F    spin-orbit coupling
   INIWAV =      1    electr: 0-lowe 1-rand  2-diag
   LASPH  =      F    aspherical Exc in radial PAW
   METAGGA=      F    non-selfconsistent MetaGGA calc.

 Electronic Relaxation 1
   ENCUT  =  400.0 eV  29.40 Ry    5.42 a.u.   9.78 11.42 13.05*2*pi/ulx,y,z
   ENINI  =  400.0     initial cutoff
   ENAUG  =  627.1 eV  augmentation charge cutoff
   NELM   =     60;   NELMIN=  2; NELMDL=  0     # of ELM steps 
   EDIFF  = 0.1E-05   stopping-criterion for ELM
   LREAL  =      F    real-space projection
   NLSPLINE    = F    spline interpolate recip. space projectors
   LCOMPAT=      F    compatible to vasp.4.4
   GGA_COMPAT  = T    GGA compatible to vasp.4.4-vasp.4.6
   LMAXPAW     = -100 max onsite density
   LMAXMIX     =    2 max onsite mixed and CHGCAR
   VOSKOWN=      0    Vosko Wilk Nusair interpolation
   ROPT   =    0.00000   0.00000
 Ionic relaxation
   EDIFFG = -.3E-01   stopping-criterion for IOM
   NSW    =     50    number of steps for IOM
   NBLOCK =      1;   KBLOCK =     50    inner block; outer block 
   IBRION =      3    ionic relax: 0-MD 1-quasi-New 2-CG
   NFREE  =      0    steps in history (QN), initial steepest desc. (CG)
   ISIF   =      2    stress and relaxation
   IWAVPR =     11    prediction:  0-non 1-charg 2-wave 3-comb
   ISYM   =      2    0-nonsym 1-usesym 2-fastsym
   LCORR  =      T    Harris-Foulkes like correction to forces

   POTIM  = 0.0000    time-step for ionic-motion
   TEIN   =    0.0    initial temperature
   TEBEG  =    0.0;   TEEND  =   0.0 temperature during run
   SMASS  =  -3.00    Nose mass-parameter (am)
   estimated Nose-frequenzy (Omega)   =  0.10E-29 period in steps =  0.00 mass=  -0.823E-27a.u.
   SCALEE = 1.0000    scale energy and forces
   NPACO  =    256;   APACO  = 16.0  distance and # of slots for P.C.
   PSTRESS=    0.0 pullay stress

  Mass of Ions in am
   POMASS =   1.00 14.00
  Ionic Valenz
   ZVAL   =   1.00  5.00
  Atomic Wigner-Seitz radii
   RWIGS  =  -1.00 -1.00
  virtual crystal weights 
   VCA    =   1.00  1.00
   NELECT =       8.0000    total number of electrons
   NUPDOWN=      -1.0000    fix difference up-down

 DOS related values:
   EMIN   =  10.00;   EMAX   =-10.00  energy-range for DOS
   EFERMI =   0.00
   ISMEAR =     1;   SIGMA  =   0.20  broadening in eV -4-tet -1-fermi 0-gaus

 Electronic relaxation 2 (details)
   IALGO  =     38    algorithm
   LDIAG  =      T    sub-space diagonalisation (order eigenvalues)
   LSUBROT=      F    optimize rotation matrix (better conditioning)
   TURBO    =      0    0=normal 1=particle mesh
   IRESTART =      0    0=no restart 2=restart with 2 vectors
   NREBOOT  =      0    no. of reboots
   NMIN     =      0    reboot dimension
   EREF     =   0.00    reference energy to select bands
   IMIX   =      4    mixing-type and parameters
     AMIX     =   0.40;   BMIX     =  1.00
     AMIX_MAG =   1.60;   BMIX_MAG =  1.00
     AMIN     =   0.10
     WC   =   100.;   INIMIX=   1;  MIXPRE=   1;  MAXMIX= -45

 Intra band minimization:
   WEIMIN = 0.0010     energy-eigenvalue tresh-hold
   EBREAK =  0.31E-07  absolut break condition
   DEPER  =   0.30     relativ break condition  

   TIME   =   0.40     timestep for ELM

  volume/ion in A,a.u.               =      84.00       566.86
  Fermi-wavevector in a.u.,A,eV,Ry     =   0.470968  0.890001  3.017925  0.221811
  Thomas-Fermi vector in A             =   1.463355

 Write flags
   LWAVE        =      T    write WAVECAR
   LDOWNSAMPLE  =      F    k-point downsampling of WAVECAR
   LCHARG       =      T    write CHGCAR
   LVTOT        =      F    write LOCPOT, total local potential
   LVHAR        =      F    write LOCPOT, Hartree potential only
   LELF         =      F    write electronic localiz. function (ELF)
   LORBIT       =      0    0 simple, 1 ext, 2 COOP (PROOUT), +10 PAW based schemes


 Dipole corrections
   LMONO  =      F    monopole corrections only (constant potential shift)
   LDIPOL =      F    correct potential (dipole corrections)
   IDIPOL =      0    1-x, 2-y, 3-z, 4-all directions 
   EPSILON=  1.0000000 bulk dielectric constant

 Exchange correlation treatment:
   GGA     =    --    GGA type
   LEXCH   =     8    internal setting for exchange type
   VOSKOWN=      0    Vosko Wilk Nusair interpolation
   LHFCALC =     F    Hartree Fock is set to
   LHFONE  =     F    Hartree Fock one center treatment
   AEXX    =    0.0000 exact exchange contribution

 Linear response parameters
   LEPSILON=     F    determine dielectric tensor
   LRPA    =     F    only Hartree local field effects (RPA)
   LNABLA  =     F    use nabla operator in PAW spheres
   LVEL    =     F    velocity operator in full k-point grid
   LINTERFAST=   F  fast interpolation
   KINTER  =     0    interpolate to denser k-point grid
   CSHIFT  =0.1000    complex shift for real part using Kramers Kronig
   OMEGAMAX=  -1.0    maximum frequency
   DEG_THRESHOLD= 0.2000000E-02 threshold for treating states as degnerate
   RTIME   =   -0.100 relaxation time in fs
  (WPLASMAI=    0.000 imaginary part of plasma frequency in eV, 0.658/RTIME)
   DFIELD  = 0.0000000 0.0000000 0.0000000 field for delta impulse in time

 Orbital magnetization related:
   ORBITALMAG=     F  switch on orbital magnetization
   LCHIMAG   =     F  perturbation theory with respect to B field
   DQ        =  0.001000  dq finite difference perturbation B field
   LLRAUG    =     F  two centre corrections for induced B field



--------------------------------------------------------------------------------------------------------


 quickmin algorithm: (dynamic with friction)
 charge density and potential will be updated during run
 non-spin polarized calculation
 Variant of blocked Davidson
 Davidson routine will perform the subspace rotation
 perform sub-space diagonalisation
    after iterative eigenvector-optimisation
 modified Broyden-mixing scheme, WC =      100.0
 initial mixing is a Kerker type mixing with AMIX =  0.4000 and BMIX =      1.0000
 Hartree-type preconditioning will be used
 using additional bands            4
 reciprocal scheme for non local part
 use partial core corrections
 calculate Harris-corrections to forces   (improved forces if not selfconsistent)
 use gradient corrections 
 use of overlap-Matrix (Vanderbilt PP)
 Methfessel and Paxton  Order N= 1 SIGMA  =   0.20


--------------------------------------------------------------------------------------------------------


  energy-cutoff  :      400.00
  volume of cell :      336.00
      direct lattice vectors                 reciprocal lattice vectors
     6.000000000  0.000000000  0.000000000     0.166666667  0.000000000  0.000000000
     0.000000000  7.000000000  0.000000000     0.000000000  0.142857143  0.000000000
     0.000000000  0.000000000  8.000000000     0.000000000  0.000000000  0.125000000

  length of vectors
     6.000000000  7.000000000  8.000000000     0.166666667  0.142857143  0.125000000



 old parameters found on file WAVECAR:
  energy-cutoff  :      400.00
  volume of cell :      336.00
      direct lattice vectors                 reciprocal lattice vectors
     6.000000000  0.000000000  0.000000000     0.166666667  0.000000000  0.000000000
     0.000000000  7.000000000  0.000000000     0.000000000  0.142857143  0.000000000
     0.000000000  0.000000000  8.000000000     0.000000000  0.000000000  0.125000000

  length of vectors


 k-points in units of 2pi/SCALE and weight: # No comment                            
   0.00000000  0.00000000  0.00000000       1.000

 k-points in reciprocal lattice and weights: # No comment                            
   0.00000000  0.00000000  0.00000000       1.000

 position of ions in fractional coordinates (direct lattice) 
   0.63642800  0.56745700  0.50000000
   0.50000000  0.36498500  0.50000000
   0.36357200  0.56745700  0.50000000
   0.50000000  0.50000000  0.50000000

 position of ions in cartesian coordinates  (Angst):
   3.81856800  3.97219900  4.00000000
   3.00000000  2.55489500  4.00000000
   2.18143200  3.97219900  4.00000000
   3.00000000  3.50000000  4.00000000



--------------------------------------------------------------------------------------------------------


 k-point  1 :   0.0000 0.0000 0.0000  plane waves:    6075

 maximum and minimum number of plane-waves per node :      6075     6075

 maximum number of plane-waves:      6075
 maximum index in each direction: 
   IXMAX=    9   IYMAX=   11   IZMAX=   13
   IXMIN=   -9   IYMIN=  -11   IZMIN=  -13


 serial   3D FFT for wavefunctions
 parallel 3D FFT for charge:
    minimum data exchange during FFTs selected (reduces bandwidth)


 total amount of memory used by VASP MPI-rank0    49277. kBytes
=======================================================================

   base      :      30000. kBytes
   nonl-proj :       1166. kBytes
   fftplans  :       6115. kBytes
   grid      :      11594. kBytes
   one-center:         12. kBytes
   wavefun   :        390. kBytes

     INWAV:  cpu time    0.0156: real time    0.0032
 Broyden mixing: mesh for mixing (old mesh)
   NGX = 19   NGY = 23   NGZ = 27
  (NGX  = 60   NGY  = 72   NGZ  = 80)
  gives a total of  11799 points

 charge density for first step will be calculated from the start-wavefunctions


--------------------------------------------------------------------------------------------------------


 Maximum index for augmentation-charges          767 (set IRDMAX)


--------------------------------------------------------------------------------------------------------


 initial charge from wavefunction
 First call to EWALD:  gamma=   0.255
 Maximum number of real-space cells 3x 3x 2
 Maximum number of reciprocal cells 2x 3x 3

    FEWALD:  cpu time    0.0000: real time    0.0016


--------------------------------------- Iteration      1(   1)  ---------------------------------------


    POTLOK:  cpu time    0.1562: real time    0.1388
    SETDIJ:  cpu time    0.0000: real time    0.0033
     EDDAV:  cpu time    0.0312: real time    0.0413
       DOS:  cpu time    0.0156: real time    0.0002
    CHARGE:  cpu time    0.0156: real time    0.0176
    MIXING:  cpu time    0.0000: real time    0.0049
    --------------------------------------------
      LOOP:  cpu time    0.2188: real time    0.2061

 eigenvalue-minimisations  :    16
 total energy-change (2. order) :-0.1935455E+02  (-0.9015050E+00)
 number of electron       8.0000070 magnetization 
 augmentation part        0.3910506 magnetization 

 Broyden mixing:
  rms(total) = 0.33606E+00    rms(broyden)= 0.33595E+00
  rms(prec ) = 0.50723E+00
  weight for this iteration     100.00

 Free energy of the ion-electron system (eV)
  ---------------------------------------------------
  alpha Z        PSCENC =         0.68708806
  Ewald energy   TEWEN  =        73.50991811
  -Hartree energ DENC   =      -310.95235061
  -exchange      EXHF   =         0.00000000
  -V(xc)+E(xc)   XCENC  =        28.97610768
  PAW double counting   =       611.86082292     -613.52651926
  entropy T*S    EENTRO =         0.01159581
  eigenvalues    EBANDS =      -111.83211644
  atomic energy  EATOM  =       301.91090041
  Solvation  Ediel_sol  =         0.00000000
  ---------------------------------------------------
  free energy    TOTEN  =       -19.35455333 eV

  energy without entropy =      -19.36614914  energy(sigma->0) =      -19.35841860


--------------------------------------------------------------------------------------------------------




--------------------------------------- Iteration      1(   2)  ---------------------------------------


    POTLOK:  cpu time    0.1406: real time    0.1367
    SETDIJ:  cpu time    0.0000: real time    0.0025
     EDDAV:  cpu time    0.0469: real time    0.0463
       DOS:  cpu time    0.0000: real time    0.0001
    CHARGE:  cpu time    0.0156: real time    0.0153
    MIXING:  cpu time    0.0000: real time    0.0044
    --------------------------------------------
      LOOP:  cpu time    0.2031: real time    0.2052

 eigenvalue-minimisations  :    16
 total energy-change (2. order) : 0.3574417E+00  (-0.1410386E+00)
 number of electron       8.0000066 magnetization 
 augmentation part        0.3612794 magnetization 

 Broyden mixing:
  rms(total) = 0.92773E-01    rms(broyden)= 0.92587E-01
  rms(prec ) = 0.12352E+00
  weight for this iteration     100.00

 eigenvalues of (default mixing * dielectric matrix)
  average eigenvalue GAMMA=   1.1566
  1.1566

 Free energy of the ion-electron system (eV)
  ---------------------------------------------------
  alpha Z        PSCENC =         0.68708806
  Ewald energy   TEWEN  =        73.50991811
  -Hartree energ DENC   =      -319.48513639
  -exchange      EXHF   =         0.00000000
  -V(xc)+E(xc)   XCENC  =        29.44725911
  PAW double counting   =       645.65936953     -647.40192671
  entropy T*S    EENTRO =         0.01159581
  eigenvalues    EBANDS =      -103.33617952
  atomic energy  EATOM  =       301.91090041
  Solvation  Ediel_sol  =         0.00000000
  ---------------------------------------------------
  free energy    TOTEN  =       -18.99711159 eV

  energy without entropy =      -19.00870740  energy(sigma->0) =      -19.00097686


--------------------------------------------------------------------------------------------------------




--------------------------------------- Iteration      1(   3)  ---------------------------------------


    POTLOK:  cpu time    0.1250: real time    0.1269
    SETDIJ:  cpu time    0.0000: real time    0.0038
     EDDAV:  cpu time    0.0625: real time    0.0489
       DOS:  cpu time    0.0000: real time    0.0001
    CHARGE:  cpu time    0.0000: real time    0.0147
    MIXING:  cpu time    0.0156: real time    0.0057
    --------------------------------------------
      LOOP:  cpu time    0.2031: real time    0.2001

 eigenvalue-minimisations  :    16
 total energy-change (2. order) : 0.9973654E-02  (-0.7619124E-02)
 number of electron       8.0000066 magnetization 
 augmentation part        0.3552427 magnetization 

 Broyden mixing:
  rms(total) = 0.64778E-01    rms(broyden)= 0.64737E-01
  rms(prec ) = 0.73711E-01
  weight for this iteration     100.00

 eigenvalues of (default mixing * dielectric matrix)
  average eigenvalue GAMMA=   1.7548
  1.2573  2.2523

 Free energy of the ion-electron system (eV)
  ---------------------------------------------------
  alpha Z        PSCENC =         0.68708806
  Ewald energy   TEWEN  =        73.50991811
  -Hartree energ DENC   =      -321.52020080
  -exchange      EXHF   =         0.00000000
  -V(xc)+E(xc)   XCENC  =        29.56002654
  PAW double counting   =       661.23626689     -662.98227883
  entropy T*S    EENTRO =         0.01159581
  eigenvalues    EBANDS =      -101.40045412
  atomic energy  EATOM  =       301.91090041
  Solvation  Ediel_sol  =         0.00000000
  ---------------------------------------------------
  free energy    TOTEN  =       -18.98713794 eV

  energy without entropy =      -18.99873375  energy(sigma->0) =      -18.99100321


--------------------------------------------------------------------------------------------------------




--------------------------------------- Iteration      1(   4)  ---------------------------------------


    POTLOK:  cpu time    0.1250: real time    0.1279
    SETDIJ:  cpu time    0.0000: real time    0.0027
     EDDAV:  cpu time    0.0469: real time    0.0427
       DOS:  cpu time    0.0000: real time    0.0001
    CHARGE:  cpu time    0.0156: real time    0.0131
    MIXING:  cpu time    0.0000: real time    0.0052
    --------------------------------------------
      LOOP:  cpu time    0.1875: real time    0.1917

 eigenvalue-minimisations  :    16
 total energy-change (2. order) : 0.8798685E-03  (-0.1166358E-02)
 number of electron       8.0000066 magnetization 
 augmentation part        0.3576448 magnetization 

 Broyden mixing:
  rms(total) = 0.18686E-01    rms(broyden)= 0.18686E-01
  rms(prec ) = 0.26632E-01
  weight for this iteration     100.00

 eigenvalues of (default mixing * dielectric matrix)
  average eigenvalue GAMMA=   1.5061
  2.4675  1.0254  1.0254

 Free energy of the ion-electron system (eV)
  ---------------------------------------------------
  alpha Z        PSCENC =         0.68708806
  Ewald energy   TEWEN  =        73.50991811
  -Hartree energ DENC   =      -321.78973411
  -exchange      EXHF   =         0.00000000
  -V(xc)+E(xc)   XCENC  =        29.57691942
  PAW double counting   =       683.15792487     -684.88559170
  entropy T*S    EENTRO =         0.01159581
  eigenvalues    EBANDS =      -101.16527893
  atomic energy  EATOM  =       301.91090041
  Solvation  Ediel_sol  =         0.00000000
  ---------------------------------------------------
  free energy    TOTEN  =       -18.98625807 eV

  energy without entropy =      -18.99785388  energy(sigma->0) =      -18.99012334


--------------------------------------------------------------------------------------------------------




--------------------------------------- Iteration      1(   5)  ---------------------------------------


    POTLOK:  cpu time    0.1406: real time    0.1334
    SETDIJ:  cpu time    0.0000: real time    0.0026
     EDDAV:  cpu time    0.0469: real time    0.0536
       DOS:  cpu time    0.0000: real time    0.0001
    CHARGE:  cpu time    0.0156: real time    0.0163
    MIXING:  cpu time    0.0156: real time    0.0041
    --------------------------------------------
      LOOP:  cpu time    0.2188: real time    0.2101

 eigenvalue-minimisations  :    24
 total energy-change (2. order) : 0.6715279E-03  (-0.4318595E-03)
 number of electron       8.0000066 magnetization 
 augmentation part        0.3559730 magnetization 

 Broyden mixing:
  rms(total) = 0.45080E-02    rms(broyden)= 0.44976E-02
  rms(prec ) = 0.69485E-02
  weight for this iteration     100.00

 eigenvalues of (default mixing * dielectric matrix)
  average eigenvalue GAMMA=   1.6756
  2.6404  1.9402  1.0609  1.0609

 Free energy of the ion-electron system (eV)
  ---------------------------------------------------
  alpha Z        PSCENC =         0.68708806
  Ewald energy   TEWEN  =        73.50991811
  -Hartree energ DENC   =      -322.22194129
  -exchange      EXHF   =         0.00000000
  -V(xc)+E(xc)   XCENC  =        29.59953052
  PAW double counting   =       682.51004722     -684.24153603
  entropy T*S    EENTRO =         0.01159581
  eigenvalues    EBANDS =      -100.75118935
  atomic energy  EATOM  =       301.91090041
  Solvation  Ediel_sol  =         0.00000000
  ---------------------------------------------------
  free energy    TOTEN  =       -18.98558654 eV

  energy without entropy =      -18.99718235  energy(sigma->0) =      -18.98945181


--------------------------------------------------------------------------------------------------------




--------------------------------------- Iteration      1(   6)  ---------------------------------------


    POTLOK:  cpu time    0.1094: real time    0.1174
    SETDIJ:  cpu time    0.0000: real time    0.0036
     EDDAV:  cpu time    0.0469: real time    0.0488
       DOS:  cpu time    0.0000: real time    0.0002
    CHARGE:  cpu time    0.0156: real time    0.0105
    MIXING:  cpu time    0.0000: real time    0.0045
    --------------------------------------------
      LOOP:  cpu time    0.1719: real time    0.1849

 eigenvalue-minimisations  :    16
 total energy-change (2. order) :-0.4923798E-03  (-0.8410981E-05)
 number of electron       8.0000066 magnetization 
 augmentation part        0.3561169 magnetization 

 Broyden mixing:
  rms(total) = 0.27065E-02    rms(broyden)= 0.27064E-02
  rms(prec ) = 0.40614E-02
  weight for this iteration     100.00

 eigenvalues of (default mixing * dielectric matrix)
  average eigenvalue GAMMA=   1.6917
  2.9671  2.4226  1.0111  1.0111  1.0466

 Free energy of the ion-electron system (eV)
  ---------------------------------------------------
  alpha Z        PSCENC =         0.68708806
  Ewald energy   TEWEN  =        73.50991811
  -Hartree energ DENC   =      -322.29852853
  -exchange      EXHF   =         0.00000000
  -V(xc)+E(xc)   XCENC  =        29.60087161
  PAW double counting   =       680.01244009     -681.74256128
  entropy T*S    EENTRO =         0.01159581
  eigenvalues    EBANDS =      -100.67780320
  atomic energy  EATOM  =       301.91090041
  Solvation  Ediel_sol  =         0.00000000
  ---------------------------------------------------
  free energy    TOTEN  =       -18.98607892 eV

  energy without entropy =      -18.99767473  energy(sigma->0) =      -18.98994419


--------------------------------------------------------------------------------------------------------




--------------------------------------- Iteration      1(   7)  ---------------------------------------


    POTLOK:  cpu time    0.1250: real time    0.1138
    SETDIJ:  cpu time    0.0000: real time    0.0033
     EDDAV:  cpu time    0.0469: real time    0.0500
       DOS:  cpu time    0.0000: real time    0.0005
    CHARGE:  cpu time    0.0156: real time    0.0114
    MIXING:  cpu time    0.0000: real time    0.0090
    --------------------------------------------
      LOOP:  cpu time    0.1875: real time    0.1881

 eigenvalue-minimisations  :    16
 total energy-change (2. order) :-0.1398826E-03  (-0.1693980E-04)
 number of electron       8.0000066 magnetization 
 augmentation part        0.3557978 magnetization 

 Broyden mixing:
  rms(total) = 0.15436E-02    rms(broyden)= 0.15419E-02
  rms(prec ) = 0.19969E-02
  weight for this iteration     100.00

 eigenvalues of (default mixing * dielectric matrix)
  average eigenvalue GAMMA=   1.9890
  3.8633  2.6002  2.3458  1.0162  1.0162  1.0922

 Free energy of the ion-electron system (eV)
  ---------------------------------------------------
  alpha Z        PSCENC =         0.68708806
  Ewald energy   TEWEN  =        73.50991811
  -Hartree energ DENC   =      -322.39599980
  -exchange      EXHF   =         0.00000000
  -V(xc)+E(xc)   XCENC  =        29.60542460
  PAW double counting   =       679.30271231     -681.03375916
  entropy T*S    EENTRO =         0.01159581
  eigenvalues    EBANDS =      -100.58409913
  atomic energy  EATOM  =       301.91090041
  Solvation  Ediel_sol  =         0.00000000
  ---------------------------------------------------
  free energy    TOTEN  =       -18.98621880 eV

  energy without entropy =      -18.99781461  energy(sigma->0) =      -18.99008407


--------------------------------------------------------------------------------------------------------




--------------------------------------- Iteration      1(   8)  ---------------------------------------


    POTLOK:  cpu time    0.1562: real time    0.1416
    SETDIJ:  cpu time    0.0000: real time    0.0035
     EDDAV:  cpu time    0.0312: real time    0.0469
       DOS:  cpu time    0.0000: real time    0.0001
    CHARGE:  cpu time    0.0312: real time    0.0136
    MIXING:  cpu time    0.0000: real time    0.0092
    --------------------------------------------
      LOOP:  cpu time    0.2188: real time    0.2149

 eigenvalue-minimisations  :    16
 total energy-change (2. order) :-0.1323982E-03  (-0.2531006E-05)
 number of electron       8.0000066 magnetization 
 augmentation part        0.3558739 magnetization 

 Broyden mixing:
  rms(total) = 0.18380E-03    rms(broyden)= 0.18371E-03
  rms(prec ) = 0.35746E-03
  weight for this iteration     100.00

 eigenvalues of (default mixing * dielectric matrix)
  average eigenvalue GAMMA=   1.9725
  4.1994  2.6482  2.4035  1.4631  1.0584  1.0174  1.0174

 Free energy of the ion-electron system (eV)
  ---------------------------------------------------
  alpha Z        PSCENC =         0.68708806
  Ewald energy   TEWEN  =        73.50991811
  -Hartree energ DENC   =      -322.39809386
  -exchange      EXHF   =         0.00000000
  -V(xc)+E(xc)   XCENC  =        29.60544032
  PAW double counting   =       679.99933755     -681.73039290
  entropy T*S    EENTRO =         0.01159581
  eigenvalues    EBANDS =      -100.58214470
  atomic energy  EATOM  =       301.91090041
  Solvation  Ediel_sol  =         0.00000000
  ---------------------------------------------------
  free energy    TOTEN  =       -18.98635120 eV

  energy without entropy =      -18.99794701  energy(sigma->0) =      -18.99021647


--------------------------------------------------------------------------------------------------------




--------------------------------------- Iteration      1(   9)  ---------------------------------------


    POTLOK:  cpu time    0.1406: real time    0.1309
    SETDIJ:  cpu time    0.0000: real time    0.0037
     EDDAV:  cpu time    0.0469: real time    0.0469
       DOS:  cpu time    0.0000: real time    0.0002
    CHARGE:  cpu time    0.0156: real time    0.0123
    MIXING:  cpu time    0.0000: real time    0.0084
    --------------------------------------------
      LOOP:  cpu time    0.2031: real time    0.2024

 eigenvalue-minimisations  :    16
 total energy-change (2. order) :-0.2192371E-04  (-0.1684809E-06)
 number of electron       8.0000066 magnetization 
 augmentation part        0.3558592 magnetization 

 Broyden mixing:
  rms(total) = 0.10160E-03    rms(broyden)= 0.10154E-03
  rms(prec ) = 0.19567E-03
  weight for this iteration     100.00

 eigenvalues of (default mixing * dielectric matrix)
  average eigenvalue GAMMA=   2.1101
  4.9061  3.0079  2.5428  2.2992  1.0261  1.0261  1.0889  0.9834

 Free energy of the ion-electron system (eV)
  ---------------------------------------------------
  alpha Z        PSCENC =         0.68708806
  Ewald energy   TEWEN  =        73.50991811
  -Hartree energ DENC   =      -322.40411874
  -exchange      EXHF   =         0.00000000
  -V(xc)+E(xc)   XCENC  =        29.60568261
  PAW double counting   =       680.05611320     -681.78718514
  entropy T*S    EENTRO =         0.01159581
  eigenvalues    EBANDS =      -100.57636743
  atomic energy  EATOM  =       301.91090041
  Solvation  Ediel_sol  =         0.00000000
  ---------------------------------------------------
  free energy    TOTEN  =       -18.98637312 eV

  energy without entropy =      -18.99796894  energy(sigma->0) =      -18.99023839


--------------------------------------------------------------------------------------------------------




--------------------------------------- Iteration      1(  10)  ---------------------------------------


    POTLOK:  cpu time    0.1250: real time    0.1286
    SETDIJ:  cpu time    0.0156: real time    0.0031
     EDDAV:  cpu time    0.0312: real time    0.0445
       DOS:  cpu time    0.0000: real time    0.0003
    CHARGE:  cpu time    0.0156: real time    0.0146
    MIXING:  cpu time    0.0000: real time    0.0066
    --------------------------------------------
      LOOP:  cpu time    0.1875: real time    0.1977

 eigenvalue-minimisations  :    16
 total energy-change (2. order) :-0.1250093E-04  (-0.1177296E-06)
 number of electron       8.0000066 magnetization 
 augmentation part        0.3558604 magnetization 

 Broyden mixing:
  rms(total) = 0.62728E-04    rms(broyden)= 0.62724E-04
  rms(prec ) = 0.84831E-04
  weight for this iteration     100.00

 eigenvalues of (default mixing * dielectric matrix)
  average eigenvalue GAMMA=   2.0773
  5.0879  3.2838  2.5387  2.3492  1.0254  1.0254  0.9994  0.9994  1.3866

 Free energy of the ion-electron system (eV)
  ---------------------------------------------------
  alpha Z        PSCENC =         0.68708806
  Ewald energy   TEWEN  =        73.50991811
  -Hartree energ DENC   =      -322.40235570
  -exchange      EXHF   =         0.00000000
  -V(xc)+E(xc)   XCENC  =        29.60552322
  PAW double counting   =       680.04161866     -681.77265525
  entropy T*S    EENTRO =         0.01159581
  eigenvalues    EBANDS =      -100.57801894
  atomic energy  EATOM  =       301.91090041
  Solvation  Ediel_sol  =         0.00000000
  ---------------------------------------------------
  free energy    TOTEN  =       -18.98638563 eV

  energy without entropy =      -18.99798144  energy(sigma->0) =      -18.99025090


--------------------------------------------------------------------------------------------------------




--------------------------------------- Iteration      1(  11)  ---------------------------------------


    POTLOK:  cpu time    0.1250: real time    0.1203
    SETDIJ:  cpu time    0.0156: real time    0.0037
     EDDAV:  cpu time    0.0469: real time    0.0506
       DOS:  cpu time    0.0000: real time    0.0003
    CHARGE:  cpu time    0.0000: real time    0.0112
    MIXING:  cpu time    0.0156: real time    0.0085
    --------------------------------------------
      LOOP:  cpu time    0.2031: real time    0.1945

 eigenvalue-minimisations  :    24
 total energy-change (2. order) :-0.1450960E-05  (-0.1115835E-07)
 number of electron       8.0000066 magnetization 
 augmentation part        0.3558654 magnetization 

 Broyden mixing:
  rms(total) = 0.31786E-04    rms(broyden)= 0.31767E-04
  rms(prec ) = 0.43623E-04
  weight for this iteration     100.00

 eigenvalues of (default mixing * dielectric matrix)
  average eigenvalue GAMMA=   2.2076
  5.4086  3.7334  2.8679  2.5640  2.3302  1.0176  1.0176  0.9711  1.0828  1.0828

 Free energy of the ion-electron system (eV)
  ---------------------------------------------------
  alpha Z        PSCENC =         0.68708806
  Ewald energy   TEWEN  =        73.50991811
  -Hartree energ DENC   =      -322.40066664
  -exchange      EXHF   =         0.00000000
  -V(xc)+E(xc)   XCENC  =        29.60543506
  PAW double counting   =       680.01834826     -681.74937297
  entropy T*S    EENTRO =         0.01159581
  eigenvalues    EBANDS =      -100.57963319
  atomic energy  EATOM  =       301.91090041
  Solvation  Ediel_sol  =         0.00000000
  ---------------------------------------------------
  free energy    TOTEN  =       -18.98638708 eV

  energy without entropy =      -18.99798289  energy(sigma->0) =      -18.99025235


--------------------------------------------------------------------------------------------------------




--------------------------------------- Iteration      1(  12)  ---------------------------------------


    POTLOK:  cpu time    0.1250: real time    0.1194
    SETDIJ:  cpu time    0.0000: real time    0.0055
     EDDAV:  cpu time    0.0625: real time    0.0550
       DOS:  cpu time    0.0000: real time    0.0002
    --------------------------------------------
      LOOP:  cpu time    0.1875: real time    0.1801

 eigenvalue-minimisations  :    16
 total energy-change (2. order) :-0.5078958E-06  (-0.4279345E-08)
 number of electron       8.0000066 magnetization 
 augmentation part        0.3558654 magnetization 

 Free energy of the ion-electron system (eV)
  ---------------------------------------------------
  alpha Z        PSCENC =         0.68708806
  Ewald energy   TEWEN  =        73.50991811
  -Hartree energ DENC   =      -322.40110476
  -exchange      EXHF   =         0.00000000
  -V(xc)+E(xc)   XCENC  =        29.60546689
  PAW double counting   =       680.00055015     -681.73158349
  entropy T*S    EENTRO =         0.01159581
  eigenvalues    EBANDS =      -100.57921876
  atomic energy  EATOM  =       301.91090041
  Solvation  Ediel_sol  =         0.00000000
  ---------------------------------------------------
  free energy    TOTEN  =       -18.98638758 eV

  energy without entropy =      -18.99798339  energy(sigma->0) =      -18.99025285


--------------------------------------------------------------------------------------------------------




 average (electrostatic) potential at core
  the test charge radii are     0.5201  0.7089
  (the norm of the test charge is              1.0000)
       1 -43.8223       2 -43.8171       3 -43.8223       4 -72.3394



 E-fermi :  -5.0365     XC(G=0):  -1.6652     alpha+bet : -0.5051


 k-point     1 :       0.0000    0.0000    0.0000
  band No.  band energies     occupation 
      1     -21.0873      2.00000
      2     -11.9990      2.00000
      3     -11.9984      2.00000
      4      -5.2049      2.00000
      5      -0.9869     -0.00000
      6       1.5005      0.00000
      7       1.6824      0.00000
      8       1.8760      0.00000


--------------------------------------------------------------------------------------------------------


 soft charge-density along one line, spin component           1
         0         1         2         3         4         5         6         7         8         9
 total charge-density along one line

 pseudopotential strength for first ion, spin component:           1
 -2.368  -4.087   0.001   0.000   0.002
 -4.087  -6.967   0.005   0.000   0.008
  0.001   0.005  -0.323  -0.000   0.005
  0.000   0.000  -0.000  -0.326   0.000
  0.002   0.008   0.005   0.000  -0.317
 total augmentation occupancy for first ion, spin component:           1
  4.113  -0.787  -0.372   0.000  -0.644
 -0.787   0.177   0.070   0.000   0.120
 -0.372   0.070   0.047   0.000   0.051
  0.000   0.000   0.000   0.045   0.000
 -0.644   0.120   0.051   0.000   0.106


------------------------ aborting loop because EDIFF is reached ----------------------------------------


    CHARGE:  cpu time    0.0000: real time    0.0100
    FORLOC:  cpu time    0.0156: real time    0.0083
    FORNL :  cpu time    0.0156: real time    0.0070
    STRESS:  cpu time    0.0625: real time    0.0596
    FORCOR:  cpu time    0.1250: real time    0.1360
    FORHAR:  cpu time    0.0469: real time    0.0424
    MIXING:  cpu time    0.0000: real time    0.0063
    OFIELD:  cpu time    0.0000: real time    0.0000

  FORCE on cell =-STRESS in cart. coord.  units (eV):
  Direction    XX          YY          ZZ          XY          YZ          ZX
  --------------------------------------------------------------------------------------
  Alpha Z     0.68709     0.68709     0.68709
  Ewald      96.04386    67.42999   -89.96396    -0.00000    -0.00000     0.00000
  Hartree   141.66594   115.02694    65.70746    -0.00000    -0.00000    -0.00000
  E(xc)     -31.49814   -31.49911   -31.93684    -0.00000    -0.00000    -0.00000
  Local    -299.41056  -244.18120   -75.83028     0.00000     0.00000     0.00000
  n-local   -25.02964   -25.02020   -26.64199    -0.00000    -0.00000    -0.00000
  augment     1.18893     1.19065     2.21075     0.00000    -0.00000     0.00000
  Kinetic   120.38557   120.35746   154.86524    -0.00000    -0.00000     0.00000
  Fock        0.00000     0.00000     0.00000     0.00000     0.00000     0.00000
  -------------------------------------------------------------------------------------
  Total       4.03305     3.99161    -0.90252     0.00000     0.00000     0.00000
  in kB      19.23112    19.03354    -4.30357     0.00000     0.00000     0.00000
  external pressure =       11.32 kB  Pullay stress =        0.00 kB


 VOLUME and BASIS-vectors are now :
 -----------------------------------------------------------------------------
  energy-cutoff  :      400.00
  volume of cell :      336.00
      direct lattice vectors                 reciprocal lattice vectors
     6.000000000  0.000000000  0.000000000     0.166666667  0.000000000  0.000000000
     0.000000000  7.000000000  0.000000000     0.000000000  0.142857143  0.000000000
     0.000000000  0.000000000  8.000000000     0.000000000  0.000000000  0.125000000

  length of vectors
     6.000000000  7.000000000  8.000000000     0.166666667  0.142857143  0.125000000


 FORCES acting on ions
    electron-ion (+dipol)            ewald-force                    non-local-force                 convergence-correction
 -----------------------------------------------------------------------------------------------
   -.649E+02 -.381E+02 -.128E-06   0.758E+02 0.443E+02 -.305E-17   -.791E+01 -.456E+01 0.000E+00   -.412E-04 -.345E-04 0.529E-15
   0.191E-13 0.760E+02 0.198E-06   0.493E-15 -.886E+02 0.334E-17   0.000E+00 0.913E+01 0.000E+00   0.129E-14 0.533E-04 0.384E-15
   0.649E+02 -.381E+02 0.214E-06   -.758E+02 0.443E+02 -.487E-17   0.791E+01 -.456E+01 0.000E+00   0.412E-04 -.345E-04 0.249E-16
   0.967E-13 0.751E-01 0.516E-12   -.141E-13 -.932E-01 0.458E-17   0.000E+00 0.295E-01 0.000E+00   0.968E-14 -.158E-03 -.680E-15
 -----------------------------------------------------------------------------------------------
   0.225E-12 -.327E-01 0.284E-06   0.951E-16 -.555E-16 0.000E+00   -.888E-15 0.333E-01 0.000E+00   0.105E-13 -.174E-03 0.257E-15


 POSITION                                       TOTAL-FORCE (eV/Angst)
 -----------------------------------------------------------------------------------
      3.81857      3.97220      4.00000         2.966861      1.709827      0.000000
      3.00000      2.55489      4.00000         0.000000     -3.430738      0.000000
      2.18143      3.97220      4.00000        -2.966861      1.709827      0.000000
      3.00000      3.50000      4.00000         0.000000      0.011084      0.000000
 -----------------------------------------------------------------------------------
    total drift:                                0.000000      0.000484      0.000000


--------------------------------------------------------------------------------------------------------



  FREE ENERGIE OF THE ION-ELECTRON SYSTEM (eV)
  ---------------------------------------------------
  free  energy   TOTEN  =       -18.98638758 eV

  energy  without entropy=      -18.99798339  energy(sigma->0) =      -18.99025285



--------------------------------------------------------------------------------------------------------


    POTLOK:  cpu time    0.1250: real time    0.1398


--------------------------------------------------------------------------------------------------------


 NEB: the previous image is higher in energy: F
 NEB: the next image is higher in energy    : F
 NEB: image is at an extrema
 NEB: diff energy (min, max):     0.241481    0.241481

 NEB: Tangent
 ----------------------------------------------
      0.00000      0.00000     -0.57747
      0.00000      0.00000     -0.57710
      0.00000      0.00000     -0.57747
      0.00000      0.00000      0.00000

 NEB: forces: par spring, perp REAL, dneb     0.000000    5.934782    0.000000
 NEB: distance to prev, next image, angle between     0.340549    0.340549  180.000000
 NEB: projections on to tangent (spring, REAL)     0.000000    0.000000

 stress matrix after NEB project (eV)
      4.03305      0.00000      0.00000
      0.00000      3.99161      0.00000
      0.00000      0.00000     -0.90252
  FORCES: max atom, RMS     3.430738    2.967391
  FORCE total and by dimension    5.934782    3.430738
  Stress total and by dimension    5.745692    4.033047
 
 OPT: Flag T
 OPT: LBFGS Step
 OPT: LBFGS start
 OPT: LBFGS, initial finite difference
 OPT: LBFGS: positions in Cartesian coordinates
      3.82029034      3.97319160      4.00000000
      3.00000000      2.55290337      4.00000000
      2.17970966      3.97319160      4.00000000
      3.00000000      3.50000643      4.00000000
 OPT: LBFGS END subroutine


--------------------------------------------------------------------------------------------------------


    WAVPRE:  cpu time    1.2969: real time    1.3438
    FEWALD:  cpu time    0.0000: real time    0.0009
    ORTHCH:  cpu time    0.0156: real time    0.0031
     LOOP+:  cpu time    4.0938: real time    4.1383


--------------------------------------- Iteration      2(   1)  ---------------------------------------


    POTLOK:  cpu time    0.1406: real time    0.1410
    SETDIJ:  cpu time    0.0000: real time    0.0039
     EDDAV:  cpu time    0.0625: real time    0.0571
       DOS:  cpu time    0.0000: real time    0.0002
    CHARGE:  cpu time    0.0156: real time    0.0149
    MIXING:  cpu time    0.0000: real time    0.0041
    --------------------------------------------
      LOOP:  cpu time    0.2188: real time    0.2212

 eigenvalue-minimisations  :    16
 total energy-change (2. order) :-0.2012758E-01  (-0.6367446E-03)
 number of electron       8.0000065 magnetization 
 augmentation part        0.3544101 magnetization 

 Broyden mixing:
  rms(total) = 0.60786E-02    rms(broyden)= 0.60751E-02
  rms(prec ) = 0.84352E-02
  weight for this iteration     100.00

 Free energy of the ion-electron system (eV)
  ---------------------------------------------------
  alpha Z        PSCENC =         0.68708806
  Ewald energy   TEWEN  =        72.98548141
  -Hartree energ DENC   =      -322.14735289
  -exchange      EXHF   =         0.00000000
  -V(xc)+E(xc)   XCENC  =        29.59179710
  PAW double counting   =       680.00816812     -681.73919802
  entropy T*S    EENTRO =         0.01159581
  eigenvalues    EBANDS =      -100.31499464
  atomic energy  EATOM  =       301.91090041
  Solvation  Ediel_sol  =         0.00000000
  ---------------------------------------------------
  free energy    TOTEN  =       -19.00651465 eV

  energy without entropy =      -19.01811046  energy(sigma->0) =      -19.01037992


--------------------------------------------------------------------------------------------------------




--------------------------------------- Iteration      2(   2)  ---------------------------------------


    POTLOK:  cpu time    0.1250: real time    0.1308
    SETDIJ:  cpu time    0.0000: real time    0.0025
     EDDAV:  cpu time    0.0469: real time    0.0390
       DOS:  cpu time    0.0000: real time    0.0001
    CHARGE:  cpu time    0.0156: real time    0.0127
    MIXING:  cpu time    0.0000: real time    0.0053
    --------------------------------------------
      LOOP:  cpu time    0.1875: real time    0.1904

 eigenvalue-minimisations  :    16
 total energy-change (2. order) : 0.8465576E-04  (-0.3513323E-04)
 number of electron       8.0000065 magnetization 
 augmentation part        0.3548478 magnetization 

 Broyden mixing:
  rms(total) = 0.22652E-02    rms(broyden)= 0.22617E-02
  rms(prec ) = 0.26005E-02
  weight for this iteration     100.00

 eigenvalues of (default mixing * dielectric matrix)
  average eigenvalue GAMMA=   1.2847
  1.2847

 Free energy of the ion-electron system (eV)
  ---------------------------------------------------
  alpha Z        PSCENC =         0.68708806
  Ewald energy   TEWEN  =        72.98548141
  -Hartree energ DENC   =      -322.01895214
  -exchange      EXHF   =         0.00000000
  -V(xc)+E(xc)   XCENC  =        29.58446368
  PAW double counting   =       678.82779250     -680.55679475
  entropy T*S    EENTRO =         0.01159581
  eigenvalues    EBANDS =      -100.43800498
  atomic energy  EATOM  =       301.91090041
  Solvation  Ediel_sol  =         0.00000000
  ---------------------------------------------------
  free energy    TOTEN  =       -19.00643000 eV

  energy without entropy =      -19.01802581  energy(sigma->0) =      -19.01029527


--------------------------------------------------------------------------------------------------------




--------------------------------------- Iteration      2(   3)  ---------------------------------------


    POTLOK:  cpu time    0.1562: real time    0.1561
    SETDIJ:  cpu time    0.0000: real time    0.0038
     EDDAV:  cpu time    0.0938: real time    0.0833
       DOS:  cpu time    0.0000: real time    0.0006
    CHARGE:  cpu time    0.0000: real time    0.0385
    MIXING:  cpu time    0.0156: real time    0.0069
    --------------------------------------------
      LOOP:  cpu time    0.2656: real time    0.2893

 eigenvalue-minimisations  :    24
 total energy-change (2. order) : 0.2408372E-05  (-0.2200090E-05)
 number of electron       8.0000065 magnetization 
 augmentation part        0.3549553 magnetization 

 Broyden mixing:
  rms(total) = 0.14373E-02    rms(broyden)= 0.14366E-02
  rms(prec ) = 0.15429E-02
  weight for this iteration     100.00

 eigenvalues of (default mixing * dielectric matrix)
  average eigenvalue GAMMA=   1.9378
  1.2558  2.6197

 Free energy of the ion-electron system (eV)
  ---------------------------------------------------
  alpha Z        PSCENC =         0.68708806
  Ewald energy   TEWEN  =        72.98548141
  -Hartree energ DENC   =      -321.99395665
  -exchange      EXHF   =         0.00000000
  -V(xc)+E(xc)   XCENC  =        29.58299836
  PAW double counting   =       678.06385539     -679.79214124
  entropy T*S    EENTRO =         0.01159581
  eigenvalues    EBANDS =      -100.46224915
  atomic energy  EATOM  =       301.91090041
  Solvation  Ediel_sol  =         0.00000000
  ---------------------------------------------------
  free energy    TOTEN  =       -19.00642759 eV

  energy without entropy =      -19.01802340  energy(sigma->0) =      -19.01029286


--------------------------------------------------------------------------------------------------------




--------------------------------------- Iteration      2(   4)  ---------------------------------------


    POTLOK:  cpu time    0.1406: real time    0.1615
    SETDIJ:  cpu time    0.0000: real time    0.0032
     EDDAV:  cpu time    0.0469: real time    0.0497
       DOS:  cpu time    0.0000: real time    0.0001
    --------------------------------------------
      LOOP:  cpu time    0.1875: real time    0.2146

 eigenvalue-minimisations  :    16
 total energy-change (2. order) :-0.4569330E-06  (-0.6798558E-06)
 number of electron       8.0000065 magnetization 
 augmentation part        0.3549553 magnetization 

 Free energy of the ion-electron system (eV)
  ---------------------------------------------------
  alpha Z        PSCENC =         0.68708806
  Ewald energy   TEWEN  =        72.98548141
  -Hartree energ DENC   =      -322.00468810
  -exchange      EXHF   =         0.00000000
  -V(xc)+E(xc)   XCENC  =        29.58349168
  PAW double counting   =       677.13313375     -678.86106018
  entropy T*S    EENTRO =         0.01159581
  eigenvalues    EBANDS =      -100.45237088
  atomic energy  EATOM  =       301.91090041
  Solvation  Ediel_sol  =         0.00000000
  ---------------------------------------------------
  free energy    TOTEN  =       -19.00642805 eV

  energy without entropy =      -19.01802386  energy(sigma->0) =      -19.01029332


--------------------------------------------------------------------------------------------------------




 average (electrostatic) potential at core
  the test charge radii are     0.5201  0.7089
  (the norm of the test charge is              1.0000)
       1 -43.7916       2 -43.7864       3 -43.7916       4 -72.3369



 E-fermi :  -5.0317     XC(G=0):  -1.6611     alpha+bet : -0.5051


 k-point     1 :       0.0000    0.0000    0.0000
  band No.  band energies     occupation 
      1     -21.0646      2.00000
      2     -11.9811      2.00000
      3     -11.9804      2.00000
      4      -5.2001      2.00000
      5      -0.9896     -0.00000
      6       1.5092      0.00000
      7       1.6820      0.00000
      8       1.8710      0.00000


--------------------------------------------------------------------------------------------------------


 soft charge-density along one line, spin component           1
         0         1         2         3         4         5         6         7         8         9
 total charge-density along one line

 pseudopotential strength for first ion, spin component:           1
 -2.368  -4.086   0.001  -0.000   0.002
 -4.086  -6.966   0.005  -0.000   0.008
  0.001   0.005  -0.323   0.000   0.005
 -0.000  -0.000   0.000  -0.326   0.000
  0.002   0.008   0.005   0.000  -0.317
 total augmentation occupancy for first ion, spin component:           1
  4.109  -0.788  -0.370   0.000  -0.640
 -0.788   0.177   0.069   0.000   0.120
 -0.370   0.069   0.046   0.000   0.050
  0.000   0.000   0.000   0.045   0.000
 -0.640   0.120   0.050   0.000   0.104


------------------------ aborting loop because EDIFF is reached ----------------------------------------


    CHARGE:  cpu time    0.0156: real time    0.0171
    FORLOC:  cpu time    0.0000: real time    0.0113
    FORNL :  cpu time    0.0156: real time    0.0103
    STRESS:  cpu time    0.0938: real time    0.0972
    FORCOR:  cpu time    0.1562: real time    0.1596
    FORHAR:  cpu time    0.0312: real time    0.0445
    MIXING:  cpu time    0.0156: real time    0.0042
    OFIELD:  cpu time    0.0000: real time    0.0000

  FORCE on cell =-STRESS in cart. coord.  units (eV):
  Direction    XX          YY          ZZ          XY          YZ          ZX
  --------------------------------------------------------------------------------------
  Alpha Z     0.68709     0.68709     0.68709
  Ewald      95.78168    67.16894   -89.96515    -0.00000    -0.00000    -0.00000
  Hartree   141.53086   114.89672    65.55340    -0.00000    -0.00000    -0.00000
  E(xc)     -31.47425   -31.47523   -31.91380     0.00000    -0.00000     0.00000
  Local    -299.13123  -243.90857   -75.62599     0.00000    -0.00000     0.00000
  n-local   -24.96301   -24.95333   -26.59608    -0.00000    -0.00000    -0.00000
  augment     1.18937     1.19119     2.20706    -0.00000     0.00000     0.00000
  Kinetic   120.22754   120.19869   154.74507    -0.00000    -0.00000     0.00000
  Fock        0.00000     0.00000     0.00000     0.00000     0.00000     0.00000
  -------------------------------------------------------------------------------------
  Total       3.84803     3.80550    -0.90841     0.00000     0.00000     0.00000
  in kB      18.34891    18.14608    -4.33164     0.00000     0.00000     0.00000
  external pressure =       10.72 kB  Pullay stress =        0.00 kB


 VOLUME and BASIS-vectors are now :
 -----------------------------------------------------------------------------
  energy-cutoff  :      400.00
  volume of cell :      336.00
      direct lattice vectors                 reciprocal lattice vectors
     6.000000000  0.000000000  0.000000000     0.166666667  0.000000000  0.000000000
     0.000000000  7.000000000  0.000000000     0.000000000  0.142857143  0.000000000
     0.000000000  0.000000000  8.000000000     0.000000000  0.000000000  0.125000000

  length of vectors
     6.000000000  7.000000000  8.000000000     0.166666667  0.142857143  0.125000000


 FORCES acting on ions
    electron-ion (+dipol)            ewald-force                    non-local-force                 convergence-correction
 -----------------------------------------------------------------------------------------------
   -.647E+02 -.380E+02 -.133E-06   0.755E+02 0.442E+02 -.970E-17   -.786E+01 -.453E+01 0.000E+00   -.192E-02 -.107E-02 0.184E-14
   0.194E-13 0.759E+02 0.183E-06   0.592E-16 -.882E+02 -.867E-17   0.000E+00 0.907E+01 0.000E+00   -.110E-16 0.222E-02 0.313E-14
   0.647E+02 -.380E+02 0.213E-06   -.755E+02 0.442E+02 -.939E-17   0.786E+01 -.453E+01 0.000E+00   0.192E-02 -.107E-02 0.152E-14
   0.958E-13 0.761E-01 0.225E-08   0.951E-16 -.955E-01 0.278E-16   0.000E+00 0.296E-01 0.000E+00   -.148E-14 0.145E-03 0.135E-13
 -----------------------------------------------------------------------------------------------
   0.238E-12 -.331E-01 0.266E-06   0.951E-16 -.555E-16 0.000E+00   -.888E-15 0.331E-01 0.000E+00   -.346E-14 0.224E-03 0.200E-13


 POSITION                                       TOTAL-FORCE (eV/Angst)
 -----------------------------------------------------------------------------------
      3.82029      3.97319      4.00000         2.850898      1.643064      0.000000
      3.00000      2.55290      4.00000         0.000000     -3.296425      0.000000
      2.17971      3.97319      4.00000        -2.850898      1.643064      0.000000
      3.00000      3.50001      4.00000         0.000000      0.010298      0.000000
 -----------------------------------------------------------------------------------
    total drift:                                0.000000      0.000223      0.000000


--------------------------------------------------------------------------------------------------------



  FREE ENERGIE OF THE ION-ELECTRON SYSTEM (eV)
  ---------------------------------------------------
  free  energy   TOTEN  =       -19.00642805 eV

  energy  without entropy=      -19.01802386  energy(sigma->0) =      -19.01029332

 d Force = 0.2004733E-01[ 0.196E-01, 0.204E-01]  d Energy = 0.2004046E-01 0.686E-05
 d Force = 0.5244379E+00[ 0.523E+00, 0.526E+00]  d Ewald  = 0.5244367E+00 0.118E-05


--------------------------------------------------------------------------------------------------------


    POTLOK:  cpu time    0.1094: real time    0.1184


--------------------------------------------------------------------------------------------------------


 NEB: the previous image is higher in energy: F
 NEB: the next image is higher in energy    : F
 NEB: image is at an extrema
 NEB: diff energy (min, max):     0.232549    0.232549

 NEB: Tangent
 ----------------------------------------------
      0.00000      0.00000     -0.57747
      0.00000     -0.00000     -0.57710
     -0.00000      0.00000     -0.57747
      0.00000      0.00000      0.00339

 NEB: forces: par spring, perp REAL, dneb     0.000000    5.702725    0.000000
 NEB: distance to prev, next image, angle between     0.340553    0.340553  179.610558
 NEB: projections on to tangent (spring, REAL)     0.000000    0.000000

 stress matrix after NEB project (eV)
      3.84803      0.00000      0.00000
      0.00000      3.80550      0.00000
      0.00000      0.00000     -0.90841
  FORCES: max atom, RMS     3.296425    2.851363
  FORCE total and by dimension    5.702725    3.296425
  Stress total and by dimension    5.487658    3.848034
 
 OPT: Flag T
 OPT: LBFGS Step
 OPT: LBFGS start
 OPT: LBFGS, invcurv =    7.9243111830662512E-003
 OPT: LBFGS, bound:            0
 OPT: LBFGS: positions in Cartesian coordinates
      3.84288174      3.98621175      4.00000000
      3.00000000      2.52678147      4.00000000
      2.15711826      3.98621175      4.00000000
      3.00000000      3.50008804      4.00000000
 OPT: LBFGS END subroutine


--------------------------------------------------------------------------------------------------------


    WAVPRE:  cpu time    0.0312: real time    0.0341
    FEWALD:  cpu time    0.0000: real time    0.0002
    ORTHCH:  cpu time    0.0156: real time    0.0038
     LOOP+:  cpu time    1.3438: real time    1.4249


--------------------------------------- Iteration      3(   1)  ---------------------------------------


    POTLOK:  cpu time    0.1406: real time    0.1498
    SETDIJ:  cpu time    0.0156: real time    0.0040
     EDDAV:  cpu time    0.0469: real time    0.0460
       DOS:  cpu time    0.0000: real time    0.0002
    CHARGE:  cpu time    0.0156: real time    0.0151
    MIXING:  cpu time    0.0000: real time    0.0044
    --------------------------------------------
      LOOP:  cpu time    0.2188: real time    0.2194

 eigenvalue-minimisations  :    16
 total energy-change (2. order) :-0.2058414E+00  (-0.1058223E+00)
 number of electron       8.0000051 magnetization 
 augmentation part        0.3366814 magnetization 

 Broyden mixing:
  rms(total) = 0.77193E-01    rms(broyden)= 0.77152E-01
  rms(prec ) = 0.10756E+00
  weight for this iteration     100.00

 Free energy of the ion-electron system (eV)
  ---------------------------------------------------
  alpha Z        PSCENC =         0.68708806
  Ewald energy   TEWEN  =        66.31169741
  -Hartree energ DENC   =      -318.69497837
  -exchange      EXHF   =         0.00000000
  -V(xc)+E(xc)   XCENC  =        29.40593255
  PAW double counting   =       677.17540509     -678.90325831
  entropy T*S    EENTRO =         0.01159581
  eigenvalues    EBANDS =       -97.11665166
  atomic energy  EATOM  =       301.91090041
  Solvation  Ediel_sol  =         0.00000000
  ---------------------------------------------------
  free energy    TOTEN  =       -19.21226900 eV

  energy without entropy =      -19.22386481  energy(sigma->0) =      -19.21613427


--------------------------------------------------------------------------------------------------------




--------------------------------------- Iteration      3(   2)  ---------------------------------------


    POTLOK:  cpu time    0.1250: real time    0.1312
    SETDIJ:  cpu time    0.0156: real time    0.0037
     EDDAV:  cpu time    0.0625: real time    0.0629
       DOS:  cpu time    0.0000: real time    0.0002
    CHARGE:  cpu time    0.0156: real time    0.0215
    MIXING:  cpu time    0.0000: real time    0.0070
    --------------------------------------------
      LOOP:  cpu time    0.2188: real time    0.2265

 eigenvalue-minimisations  :    24
 total energy-change (2. order) : 0.1342913E-01  (-0.5996413E-02)
 number of electron       8.0000051 magnetization 
 augmentation part        0.3424270 magnetization 

 Broyden mixing:
  rms(total) = 0.29563E-01    rms(broyden)= 0.29523E-01
  rms(prec ) = 0.33381E-01
  weight for this iteration     100.00

 eigenvalues of (default mixing * dielectric matrix)
  average eigenvalue GAMMA=   1.2348
  1.2348

 Free energy of the ion-electron system (eV)
  ---------------------------------------------------
  alpha Z        PSCENC =         0.68708806
  Ewald energy   TEWEN  =        66.31169741
  -Hartree energ DENC   =      -317.06237419
  -exchange      EXHF   =         0.00000000
  -V(xc)+E(xc)   XCENC  =        29.31255679
  PAW double counting   =       662.07362957     -663.77628628
  entropy T*S    EENTRO =         0.01159581
  eigenvalues    EBANDS =       -98.66764746
  atomic energy  EATOM  =       301.91090041
  Solvation  Ediel_sol  =         0.00000000
  ---------------------------------------------------
  free energy    TOTEN  =       -19.19883987 eV

  energy without entropy =      -19.21043568  energy(sigma->0) =      -19.20270514


--------------------------------------------------------------------------------------------------------




--------------------------------------- Iteration      3(   3)  ---------------------------------------


    POTLOK:  cpu time    0.1719: real time    0.1835
    SETDIJ:  cpu time    0.0000: real time    0.0035
     EDDAV:  cpu time    0.0781: real time    0.0762
       DOS:  cpu time    0.0000: real time    0.0002
    CHARGE:  cpu time    0.0156: real time    0.0167
    MIXING:  cpu time    0.0156: real time    0.0047
    --------------------------------------------
      LOOP:  cpu time    0.2812: real time    0.2847

 eigenvalue-minimisations  :    24
 total energy-change (2. order) : 0.3720243E-03  (-0.1918264E-03)
 number of electron       8.0000052 magnetization 
 augmentation part        0.3434836 magnetization 

 Broyden mixing:
  rms(total) = 0.17330E-01    rms(broyden)= 0.17324E-01
  rms(prec ) = 0.18666E-01
  weight for this iteration     100.00

 eigenvalues of (default mixing * dielectric matrix)
  average eigenvalue GAMMA=   1.9737
  1.1877  2.7597

 Free energy of the ion-electron system (eV)
  ---------------------------------------------------
  alpha Z        PSCENC =         0.68708806
  Ewald energy   TEWEN  =        66.31169741
  -Hartree energ DENC   =      -316.80091054
  -exchange      EXHF   =         0.00000000
  -V(xc)+E(xc)   XCENC  =        29.29677715
  PAW double counting   =       652.43894475     -654.13351236
  entropy T*S    EENTRO =         0.01159581
  eigenvalues    EBANDS =       -98.92104854
  atomic energy  EATOM  =       301.91090041
  Solvation  Ediel_sol  =         0.00000000
  ---------------------------------------------------
  free energy    TOTEN  =       -19.19846785 eV

  energy without entropy =      -19.21006366  energy(sigma->0) =      -19.20233312


--------------------------------------------------------------------------------------------------------




--------------------------------------- Iteration      3(   4)  ---------------------------------------


    POTLOK:  cpu time    0.1250: real time    0.1435
    SETDIJ:  cpu time    0.0000: real time    0.0037
     EDDAV:  cpu time    0.0469: real time    0.0514
       DOS:  cpu time    0.0000: real time    0.0001
    CHARGE:  cpu time    0.0312: real time    0.0177
    MIXING:  cpu time    0.0000: real time    0.0041
    --------------------------------------------
      LOOP:  cpu time    0.2031: real time    0.2204

 eigenvalue-minimisations  :    16
 total energy-change (2. order) :-0.2737866E-04  (-0.5376719E-04)
 number of electron       8.0000052 magnetization 
 augmentation part        0.3431616 magnetization 

 Broyden mixing:
  rms(total) = 0.34352E-02    rms(broyden)= 0.34350E-02
  rms(prec ) = 0.44763E-02
  weight for this iteration     100.00

 eigenvalues of (default mixing * dielectric matrix)
  average eigenvalue GAMMA=   1.5310
  2.4285  1.0823  1.0823

 Free energy of the ion-electron system (eV)
  ---------------------------------------------------
  alpha Z        PSCENC =         0.68708806
  Ewald energy   TEWEN  =        66.31169741
  -Hartree energ DENC   =      -316.86097159
  -exchange      EXHF   =         0.00000000
  -V(xc)+E(xc)   XCENC  =        29.29876070
  PAW double counting   =       640.31134867     -642.00042206
  entropy T*S    EENTRO =         0.01159581
  eigenvalues    EBANDS =       -98.86849263
  atomic energy  EATOM  =       301.91090041
  Solvation  Ediel_sol  =         0.00000000
  ---------------------------------------------------
  free energy    TOTEN  =       -19.19849522 eV

  energy without entropy =      -19.21009103  energy(sigma->0) =      -19.20236049


--------------------------------------------------------------------------------------------------------




--------------------------------------- Iteration      3(   5)  ---------------------------------------


    POTLOK:  cpu time    0.1406: real time    0.1429
    SETDIJ:  cpu time    0.0000: real time    0.0035
     EDDAV:  cpu time    0.0781: real time    0.0829
       DOS:  cpu time    0.0000: real time    0.0002
    CHARGE:  cpu time    0.0312: real time    0.0177
    MIXING:  cpu time    0.0000: real time    0.0054
    --------------------------------------------
      LOOP:  cpu time    0.2500: real time    0.2525

 eigenvalue-minimisations  :    32
 total energy-change (2. order) : 0.2566582E-05  (-0.1093290E-04)
 number of electron       8.0000052 magnetization 
 augmentation part        0.3434083 magnetization 

 Broyden mixing:
  rms(total) = 0.50166E-03    rms(broyden)= 0.49948E-03
  rms(prec ) = 0.99901E-03
  weight for this iteration     100.00

 eigenvalues of (default mixing * dielectric matrix)
  average eigenvalue GAMMA=   1.5638
  2.4092  1.7269  1.0595  1.0595

 Free energy of the ion-electron system (eV)
  ---------------------------------------------------
  alpha Z        PSCENC =         0.68708806
  Ewald energy   TEWEN  =        66.31169741
  -Hartree energ DENC   =      -316.80758256
  -exchange      EXHF   =         0.00000000
  -V(xc)+E(xc)   XCENC  =        29.29619306
  PAW double counting   =       641.38811154     -643.07714377
  entropy T*S    EENTRO =         0.01159581
  eigenvalues    EBANDS =       -98.91935262
  atomic energy  EATOM  =       301.91090041
  Solvation  Ediel_sol  =         0.00000000
  ---------------------------------------------------
  free energy    TOTEN  =       -19.19849266 eV

  energy without entropy =      -19.21008847  energy(sigma->0) =      -19.20235793


--------------------------------------------------------------------------------------------------------




--------------------------------------- Iteration      3(   6)  ---------------------------------------


    POTLOK:  cpu time    0.1406: real time    0.1369
    SETDIJ:  cpu time    0.0000: real time    0.0036
     EDDAV:  cpu time    0.0469: real time    0.0445
       DOS:  cpu time    0.0000: real time    0.0002
    CHARGE:  cpu time    0.0000: real time    0.0160
    MIXING:  cpu time    0.0156: real time    0.0040
    --------------------------------------------
      LOOP:  cpu time    0.2031: real time    0.2051

 eigenvalue-minimisations  :    16
 total energy-change (2. order) :-0.2802368E-04  (-0.3127397E-06)
 number of electron       8.0000052 magnetization 
 augmentation part        0.3433788 magnetization 

 Broyden mixing:
  rms(total) = 0.21284E-03    rms(broyden)= 0.21279E-03
  rms(prec ) = 0.54538E-03
  weight for this iteration     100.00

 eigenvalues of (default mixing * dielectric matrix)
  average eigenvalue GAMMA=   1.6616
  2.7950  2.3832  1.1125  1.0088  1.0088

 Free energy of the ion-electron system (eV)
  ---------------------------------------------------
  alpha Z        PSCENC =         0.68708806
  Ewald energy   TEWEN  =        66.31169741
  -Hartree energ DENC   =      -316.81937362
  -exchange      EXHF   =         0.00000000
  -V(xc)+E(xc)   XCENC  =        29.29711820
  PAW double counting   =       641.26542152     -642.95451698
  entropy T*S    EENTRO =         0.01159581
  eigenvalues    EBANDS =       -98.90845149
  atomic energy  EATOM  =       301.91090041
  Solvation  Ediel_sol  =         0.00000000
  ---------------------------------------------------
  free energy    TOTEN  =       -19.19852068 eV

  energy without entropy =      -19.21011649  energy(sigma->0) =      -19.20238595


--------------------------------------------------------------------------------------------------------




--------------------------------------- Iteration      3(   7)  ---------------------------------------


    POTLOK:  cpu time    0.1250: real time    0.1191
    SETDIJ:  cpu time    0.0000: real time    0.0040
     EDDAV:  cpu time    0.0469: real time    0.0468
       DOS:  cpu time    0.0000: real time    0.0004
    CHARGE:  cpu time    0.0156: real time    0.0123
    MIXING:  cpu time    0.0000: real time    0.0059
    --------------------------------------------
      LOOP:  cpu time    0.1875: real time    0.1883

 eigenvalue-minimisations  :    16
 total energy-change (2. order) :-0.2350573E-04  (-0.2058073E-06)
 number of electron       8.0000052 magnetization 
 augmentation part        0.3433903 magnetization 

 Broyden mixing:
  rms(total) = 0.13127E-03    rms(broyden)= 0.13123E-03
  rms(prec ) = 0.28523E-03
  weight for this iteration     100.00

 eigenvalues of (default mixing * dielectric matrix)
  average eigenvalue GAMMA=   1.9621
  3.8637  2.5219  2.2889  1.0272  1.0272  1.0438

 Free energy of the ion-electron system (eV)
  ---------------------------------------------------
  alpha Z        PSCENC =         0.68708806
  Ewald energy   TEWEN  =        66.31169741
  -Hartree energ DENC   =      -316.81786042
  -exchange      EXHF   =         0.00000000
  -V(xc)+E(xc)   XCENC  =        29.29722574
  PAW double counting   =       641.14847376     -642.83750791
  entropy T*S    EENTRO =         0.01159581
  eigenvalues    EBANDS =       -98.91015704
  atomic energy  EATOM  =       301.91090041
  Solvation  Ediel_sol  =         0.00000000
[...]
  Alpha Z     0.68709     0.68709     0.68709
  Ewald      88.68411    59.98785   -90.00063     0.00000     0.00008    -0.00000
  Hartree   137.92189   111.40748    61.42904    -0.00000     0.00000    -0.00000
  E(xc)     -30.80339   -30.80517   -31.26498    -0.00000    -0.00000     0.00000
  Local    -291.27417  -236.14062   -70.03889     0.00000    -0.00005    -0.00000
  n-local   -23.13169   -23.11286   -25.37434    -0.00000     0.00001    -0.00000
  augment     1.19180     1.19158     2.12563    -0.00000    -0.00000     0.00000
  Kinetic   116.06610   116.03876   151.57950    -0.00000    -0.00005     0.00000
  Fock        0.00000     0.00000     0.00000     0.00000     0.00000     0.00000
  -------------------------------------------------------------------------------------
  Total      -0.65826    -0.74591    -0.85758     0.00000     0.00000     0.00000
  in kB      -3.13886    -3.55677    -4.08929     0.00000     0.00000     0.00000
  external pressure =       -3.59 kB  Pullay stress =        0.00 kB


 VOLUME and BASIS-vectors are now :
 -----------------------------------------------------------------------------
  energy-cutoff  :      400.00
  volume of cell :      336.00
      direct lattice vectors                 reciprocal lattice vectors
     6.000000000  0.000000000  0.000000000     0.166666667  0.000000000  0.000000000
     0.000000000  7.000000000  0.000000000     0.000000000  0.142857143  0.000000000
     0.000000000  0.000000000  8.000000000     0.000000000  0.000000000  0.125000000

  length of vectors
     6.000000000  7.000000000  8.000000000     0.166666667  0.142857143  0.125000000


 FORCES acting on ions
    electron-ion (+dipol)            ewald-force                    non-local-force                 convergence-correction
 -----------------------------------------------------------------------------------------------
   -.601E+02 -.353E+02 -.331E-02   0.667E+02 0.391E+02 0.305E-02   -.654E+01 -.377E+01 0.000E+00   -.530E-03 -.713E-03 0.754E-04
   0.166E-13 0.705E+02 -.320E-02   -.887E-16 -.780E+02 0.297E-02   0.000E+00 0.752E+01 0.000E+00   0.377E-15 0.127E-02 0.756E-04
   0.601E+02 -.353E+02 -.331E-02   -.667E+02 0.391E+02 0.305E-02   0.654E+01 -.377E+01 0.000E+00   0.530E-03 -.713E-03 0.754E-04
   0.106E-12 0.124E+00 0.140E-01   0.720E-14 -.176E+00 -.906E-02   0.000E+00 0.309E-01 0.000E+00   0.176E-14 -.776E-02 0.889E-03
 -----------------------------------------------------------------------------------------------
   0.120E-12 -.153E-01 0.416E-02   0.720E-14 -.555E-16 0.000E+00   0.000E+00 0.223E-01 0.000E+00   0.923E-15 -.792E-02 0.112E-02


 POSITION                                       TOTAL-FORCE (eV/Angst)
 -----------------------------------------------------------------------------------
      3.87044      4.00194      4.00003         0.020097      0.014023      0.000000
      3.00000      2.49495      4.00003         0.000000      0.001152      0.000000
      2.12956      4.00194      4.00003        -0.020097      0.014023      0.000000
      3.00000      3.50047      3.99999         0.000000     -0.029197      0.000000
 -----------------------------------------------------------------------------------
    total drift:                                0.000000     -0.000987      0.005280


--------------------------------------------------------------------------------------------------------



  FREE ENERGIE OF THE ION-ELECTRON SYSTEM (eV)
  ---------------------------------------------------
  free  energy   TOTEN  =       -19.27590655 eV

  energy  without entropy=      -19.28750236  energy(sigma->0) =      -19.27977182

 d Force = 0.3350515E-05[-0.565E-04, 0.632E-04]  d Energy = 0.5172202E-05-0.182E-05
 d Force =-0.1436335E+00[-0.144E+00,-0.143E+00]  d Ewald  =-0.1436334E+00-0.397E-07


--------------------------------------------------------------------------------------------------------


    POTLOK:  cpu time    0.1406: real time    0.1441


--------------------------------------------------------------------------------------------------------


 NEB: the previous image is higher in energy: F
 NEB: the next image is higher in energy    : F
 NEB: image is at an extrema
 NEB: diff energy (min, max):     0.213914    0.214075

 NEB: Tangent
 ----------------------------------------------
     -0.00137     -0.00104     -0.47903
      0.00000     -0.00364     -0.47777
      0.00137     -0.00104     -0.47903
      0.00000      0.00572      0.55924

 NEB: forces: par spring, perp REAL, dneb     0.000011    0.045329    0.000000
 NEB: distance to prev, next image, angle between     0.407669    0.407671  148.287286
 NEB: projections on to tangent (spring, REAL)     0.000011   -0.000255

 stress matrix after NEB project (eV)
     -0.65826      0.00000      0.00000
      0.00000     -0.74591      0.00000
      0.00000      0.00000     -0.85758
  FORCES: max atom, RMS     0.029195    0.022665
  FORCE total and by dimension    0.045330    0.029194
  Stress total and by dimension    1.313445    0.857584
 
 OPT: Flag T
 OPT: LBFGS Step
 OPT: LBFGS start
 OPT: LBFGS, invcurv =   0.12381828685690821     
 OPT: LBFGS, adding new vector
 OPT: LBFGS, DeltaG:
     -0.04168948     -0.02860893     -0.00008526
     -0.00000000     -0.01330447     -0.00008104
      0.04168948     -0.02860893     -0.00008526
     -0.00000000      0.07052233      0.00002068
 OPT: LBFGS, DeltaR:
     -0.00060585     -0.00048414     -0.00001468
      0.00000000      0.00032023     -0.00001446
      0.00060585     -0.00048414     -0.00001468
      0.00000000      0.00064805      0.00001361
 OPT: LBFGS, itr, rho:           20   69.026677198815207     
 OPT: LBFGS, bound:           20
 OPT: LBFGS: positions in Cartesian coordinates
      3.87077716      4.00225420      3.99999821
      3.00000000      2.49460845      3.99999762
      2.12922284      4.00225420      3.99999821
      3.00000000      3.50017614      4.00001635
 OPT: LBFGS END subroutine


--------------------------------------------------------------------------------------------------------


    WAVPRE:  cpu time    1.6562: real time    1.6478
    FEWALD:  cpu time    0.0000: real time    0.0002
    ORTHCH:  cpu time    0.0000: real time    0.0026
     LOOP+:  cpu time    2.7188: real time    2.7083


--------------------------------------- Iteration     23(   1)  ---------------------------------------


    POTLOK:  cpu time    0.1562: real time    0.1563
    SETDIJ:  cpu time    0.0000: real time    0.0027
     EDDAV:  cpu time    0.0469: real time    0.0426
       DOS:  cpu time    0.0000: real time    0.0003
    CHARGE:  cpu time    0.0156: real time    0.0115
    MIXING:  cpu time    0.0000: real time    0.0035
    --------------------------------------------
      LOOP:  cpu time    0.2188: real time    0.2170

 eigenvalue-minimisations  :    16
 total energy-change (2. order) :-0.1321089E-04  (-0.6220214E-04)
 number of electron       8.0000050 magnetization 
 augmentation part        0.3304516 magnetization 

 Broyden mixing:
  rms(total) = 0.93836E-03    rms(broyden)= 0.93626E-03
  rms(prec ) = 0.12958E-02
  weight for this iteration     100.00

 Free energy of the ion-electron system (eV)
  ---------------------------------------------------
  alpha Z        PSCENC =         0.68708806
  Ewald energy   TEWEN  =        58.57455305
  -Hartree energ DENC   =      -310.71304042
  -exchange      EXHF   =         0.00000000
  -V(xc)+E(xc)   XCENC  =        28.96151438
  PAW double counting   =       600.75270108     -602.40082551
  entropy T*S    EENTRO =         0.01159581
  eigenvalues    EBANDS =       -97.06040743
  atomic energy  EATOM  =       301.91090041
  Solvation  Ediel_sol  =         0.00000000
  ---------------------------------------------------
  free energy    TOTEN  =       -19.27592057 eV

  energy without entropy =      -19.28751638  energy(sigma->0) =      -19.27978584


--------------------------------------------------------------------------------------------------------




--------------------------------------- Iteration     23(   2)  ---------------------------------------


    POTLOK:  cpu time    0.1406: real time    0.1398
    SETDIJ:  cpu time    0.0000: real time    0.0047
     EDDAV:  cpu time    0.0469: real time    0.0492
       DOS:  cpu time    0.0000: real time    0.0001
    CHARGE:  cpu time    0.0156: real time    0.0165
    MIXING:  cpu time    0.0000: real time    0.0046
    --------------------------------------------
      LOOP:  cpu time    0.2031: real time    0.2149

 eigenvalue-minimisations  :    16
 total energy-change (2. order) : 0.1160209E-05  (-0.1299307E-05)
 number of electron       8.0000050 magnetization 
 augmentation part        0.3305014 magnetization 

 Broyden mixing:
  rms(total) = 0.43505E-03    rms(broyden)= 0.43434E-03
  rms(prec ) = 0.55911E-03
  weight for this iteration     100.00

 eigenvalues of (default mixing * dielectric matrix)
  average eigenvalue GAMMA=   1.3423
  1.3423

 Free energy of the ion-electron system (eV)
  ---------------------------------------------------
  alpha Z        PSCENC =         0.68708806
  Ewald energy   TEWEN  =        58.57455305
  -Hartree energ DENC   =      -310.69487474
  -exchange      EXHF   =         0.00000000
  -V(xc)+E(xc)   XCENC  =        28.96045732
  PAW double counting   =       600.58040010     -602.22825765
  entropy T*S    EENTRO =         0.01159581
  eigenvalues    EBANDS =       -97.07778176
  atomic energy  EATOM  =       301.91090041
  Solvation  Ediel_sol  =         0.00000000
  ---------------------------------------------------
  free energy    TOTEN  =       -19.27591941 eV

  energy without entropy =      -19.28751522  energy(sigma->0) =      -19.27978468


--------------------------------------------------------------------------------------------------------




--------------------------------------- Iteration     23(   3)  ---------------------------------------


    POTLOK:  cpu time    0.1250: real time    0.1307
    SETDIJ:  cpu time    0.0000: real time    0.0026
     EDDAV:  cpu time    0.0469: real time    0.0434
       DOS:  cpu time    0.0000: real time    0.0001
    --------------------------------------------
      LOOP:  cpu time    0.1719: real time    0.1769

 eigenvalue-minimisations  :    16
 total energy-change (2. order) : 0.7022084E-07  (-0.2166211E-06)
 number of electron       8.0000050 magnetization 
 augmentation part        0.3305014 magnetization 

 Free energy of the ion-electron system (eV)
  ---------------------------------------------------
  alpha Z        PSCENC =         0.68708806
  Ewald energy   TEWEN  =        58.57455305
  -Hartree energ DENC   =      -310.68754544
  -exchange      EXHF   =         0.00000000
  -V(xc)+E(xc)   XCENC  =        28.96003137
  PAW double counting   =       600.46987952     -602.11761158
  entropy T*S    EENTRO =         0.01159581
  eigenvalues    EBANDS =       -97.08481054
  atomic energy  EATOM  =       301.91090041
  Solvation  Ediel_sol  =         0.00000000
  ---------------------------------------------------
  free energy    TOTEN  =       -19.27591934 eV

  energy without entropy =      -19.28751515  energy(sigma->0) =      -19.27978461


--------------------------------------------------------------------------------------------------------




 average (electrostatic) potential at core
  the test charge radii are     0.5201  0.7089
  (the norm of the test charge is              1.0000)
       1 -43.0641       2 -43.0571       3 -43.0641       4 -72.3635



 E-fermi :  -4.9250     XC(G=0):  -1.7131     alpha+bet : -0.5051


 k-point     1 :       0.0000    0.0000    0.0000
  band No.  band energies     occupation 
      1     -20.4522      2.00000
      2     -11.4995      2.00000
      3     -11.4973      2.00000
      4      -5.0934      2.00000
      5      -1.1083     -0.00000
      6       1.3575      0.00000
      7       1.6601      0.00000
      8       1.7229      0.00000


--------------------------------------------------------------------------------------------------------


 soft charge-density along one line, spin component           1
         0         1         2         3         4         5         6         7         8         9
 total charge-density along one line

 pseudopotential strength for first ion, spin component:           1
 -2.362  -4.074   0.001  -0.000   0.002
 -4.074  -6.941   0.004  -0.000   0.006
  0.001   0.004  -0.328  -0.000   0.003
 -0.000  -0.000  -0.000  -0.331  -0.000
  0.002   0.006   0.003  -0.000  -0.325
 total augmentation occupancy for first ion, spin component:           1
  3.895  -0.781  -0.307   0.000  -0.532
 -0.781   0.176   0.062   0.000   0.107
 -0.307   0.062   0.034   0.000   0.037
  0.000   0.000   0.000   0.033   0.000
 -0.532   0.107   0.037   0.000   0.076


------------------------ aborting loop because EDIFF is reached ----------------------------------------


    CHARGE:  cpu time    0.0000: real time    0.0089
    FORLOC:  cpu time    0.0156: real time    0.0110
    FORNL :  cpu time    0.0156: real time    0.0117
    STRESS:  cpu time    0.0781: real time    0.0812
    FORCOR:  cpu time    0.1406: real time    0.1436
    FORHAR:  cpu time    0.0625: real time    0.0544
    MIXING:  cpu time    0.0000: real time    0.0051
    OFIELD:  cpu time    0.0000: real time    0.0000

  FORCE on cell =-STRESS in cart. coord.  units (eV):
  Direction    XX          YY          ZZ          XY          YZ          ZX
  --------------------------------------------------------------------------------------
  Alpha Z     0.68709     0.68709     0.68709
  Ewald      88.57011    60.00532   -90.00090    -0.00000     0.00004     0.00000
  Hartree   137.89333   111.39544    61.40562    -0.00000     0.00000    -0.00000
  E(xc)     -30.79879   -30.80017   -31.26031     0.00000    -0.00000    -0.00000
  Local    -291.16795  -236.14135   -70.00462     0.00000    -0.00003     0.00000
  n-local   -23.11836   -23.10256   -25.36706    -0.00000     0.00002    -0.00000
  augment     1.19226     1.19131     2.12535     0.00000    -0.00000     0.00000
  Kinetic   116.05389   116.00446   151.56214     0.00000    -0.00008     0.00000
  Fock        0.00000     0.00000     0.00000     0.00000     0.00000     0.00000
  -------------------------------------------------------------------------------------
  Total      -0.68842    -0.76046    -0.85270     0.00000     0.00000     0.00000
  in kB      -3.28267    -3.62618    -4.06602     0.00000     0.00000     0.00000
  external pressure =       -3.66 kB  Pullay stress =        0.00 kB


 VOLUME and BASIS-vectors are now :
 -----------------------------------------------------------------------------
  energy-cutoff  :      400.00
  volume of cell :      336.00
      direct lattice vectors                 reciprocal lattice vectors
     6.000000000  0.000000000  0.000000000     0.166666667  0.000000000  0.000000000
     0.000000000  7.000000000  0.000000000     0.000000000  0.142857143  0.000000000
     0.000000000  0.000000000  8.000000000     0.000000000  0.000000000  0.125000000

  length of vectors
     6.000000000  7.000000000  8.000000000     0.166666667  0.142857143  0.125000000


 FORCES acting on ions
    electron-ion (+dipol)            ewald-force                    non-local-force                 convergence-correction
 -----------------------------------------------------------------------------------------------
   -.601E+02 -.353E+02 0.265E-03   0.666E+02 0.391E+02 -.128E-02   -.652E+01 -.376E+01 0.000E+00   0.362E-03 0.303E-03 0.212E-03
   0.165E-13 0.705E+02 0.332E-03   -.232E-16 -.780E+02 -.132E-02   0.000E+00 0.752E+01 0.000E+00   0.185E-15 -.640E-03 0.212E-03
   0.601E+02 -.353E+02 0.264E-03   -.666E+02 0.391E+02 -.128E-02   0.652E+01 -.376E+01 0.000E+00   -.362E-03 0.303E-03 0.212E-03
   0.104E-12 0.987E-01 -.156E-01   0.285E-13 -.141E+00 0.389E-02   0.000E+00 0.404E-01 0.000E+00   0.299E-14 0.272E-02 0.243E-02
 -----------------------------------------------------------------------------------------------
   0.175E-12 -.413E-01 -.147E-01   0.951E-16 -.555E-16 0.000E+00   0.888E-15 0.400E-01 0.000E+00   0.193E-14 0.269E-02 0.307E-02


 POSITION                                       TOTAL-FORCE (eV/Angst)
 -----------------------------------------------------------------------------------
      3.87078      4.00225      4.00000        -0.003648     -0.002827      0.000000
      3.00000      2.49461      4.00000         0.000000      0.005218      0.000000
      2.12922      4.00225      4.00000         0.003648     -0.002827      0.000000
      3.00000      3.50018      4.00002         0.000000      0.000436      0.000000
 -----------------------------------------------------------------------------------
    total drift:                                0.000000      0.001425     -0.011658


--------------------------------------------------------------------------------------------------------



  FREE ENERGIE OF THE ION-ELECTRON SYSTEM (eV)
  ---------------------------------------------------
  free  energy   TOTEN  =       -19.27591934 eV

  energy  without entropy=      -19.28751515  energy(sigma->0) =      -19.27978461

 d Force = 0.1233687E-04[-0.619E-05, 0.309E-04]  d Energy = 0.1279755E-04-0.461E-06
 d Force = 0.9680169E-01[ 0.968E-01, 0.968E-01]  d Ewald  = 0.9680169E-01 0.746E-08


--------------------------------------------------------------------------------------------------------


    POTLOK:  cpu time    0.1406: real time    0.1393


--------------------------------------------------------------------------------------------------------


 NEB: the previous image is higher in energy: F
 NEB: the next image is higher in energy    : F
 NEB: image is at an extrema
 NEB: diff energy (min, max):     0.215721    0.215723

 NEB: Tangent
 ----------------------------------------------
      0.00002      0.00006     -0.49622
      0.00000     -0.00019     -0.49220
     -0.00002      0.00006     -0.49622
      0.00000      0.00007      0.51505

 NEB: forces: par spring, perp REAL, dneb     0.000272    0.008368    0.000000
 NEB: distance to prev, next image, angle between     0.402333    0.402278  150.024696
 NEB: projections on to tangent (spring, REAL)    -0.000272   -0.000001

 stress matrix after NEB project (eV)
     -0.68842      0.00000      0.00000
      0.00000     -0.76046      0.00000
      0.00000      0.00000     -0.85270
  FORCES: max atom, RMS     0.005218    0.004184
  FORCE total and by dimension    0.008368    0.005218
  Stress total and by dimension    1.333917    0.852703
 OPT: skip step - force has converged


--------------------------------------------------------------------------------------------------------


  
 reached required accuracy - stopping structural energy minimisation
 writing wavefunctions
     LOOP+:  cpu time    2.5156: real time    2.5403
    4ORBIT:  cpu time    0.0000: real time    0.0000

 total amount of memory used by VASP MPI-rank0    49277. kBytes
=======================================================================

   base      :      30000. kBytes
   nonl-proj :       1166. kBytes
   fftplans  :       6115. kBytes
   grid      :      11594. kBytes
   one-center:         12. kBytes
   wavefun   :        390. kBytes

  
  
 General timing and accounting informations for this job:
 ========================================================
  
                  Total CPU time used (sec):       58.250
                            User time (sec):       55.188
                          System time (sec):        3.062
                         Elapsed time (sec):       59.189
  
                   Maximum memory used (kb):       54232.
                   Average memory used (kb):           0.
  
                          Minor page faults:       641699
                          Major page faults:            0
                 Voluntary context switches:            0
