   4   4   1   0
  0.1648482E+02  0.4040000E-09  0.4040000E-09  0.4040000E-09  0.1000000E-15
  1.000000000000000E-004
  CAR
 unknown system
     13.67039808     -3.43982524   10      7.29482275      1.00000000
     -3.440 -0.1104E-42 -0.2099E-42
     -1.539  0.1400E+00  0.2661E+00
      0.362 -0.3624E-72  0.2000E+01
      2.264 -0.1338E-04  0.2000E+01
      4.165  0.3156E+01  0.8000E+01
      6.066 -0.2412E-14  0.8000E+01
      7.967  0.3156E+01  0.1400E+02
      9.868 -0.1381E-26  0.1400E+02
     11.769  0.2901E+01  0.1952E+02
     13.670  0.0000E+00  0.2000E+02