   4   4   1   0
  0.1648482E+02  0.4040000E-09  0.4040000E-09  0.4040000E-09  0.1000000E-15
  1.000000000000000E-004
  CAR 
 unknown system                          
     13.67039808     -3.43982524   10      7.29482275      1.00000000
     -3.440 -0.1104E-42 -0.2099E-42
     -1.539  0.1400E+00  0.2661E+00
      0.362 -0.3624E-72  0.2000E+01
      2.264 -0.1338E-04  0.2000E+01
      4.165  0.3156E+01  0.8000E+01
      6.066 -0.2412E-14  0.8000E+01
      7.967  0.3156E+01  0.1400E+02
      9.868 -0.1381E-26  0.1400E+02
     11.769  0.2901E+01  0.1952E+02
     13.670  0.0000E+00  0.2000E+02
     13.67039808     -3.43982524   10      7.29482275      1.00000000
     -3.440 -0.6543E-44 -0.3040E-45 -0.3040E-45 -0.3040E-45  0.0000E+00  0.0000E+00  0.0000E+00  0.0000E+00  0.0000E+00
     -1.539  0.8295E-02  0.3853E-03  0.3853E-03  0.3853E-03  0.0000E+00  0.0000E+00  0.0000E+00  0.0000E+00  0.0000E+00
      0.362 -0.1336E-73 -0.3400E-74 -0.3400E-74 -0.3400E-74  0.0000E+00  0.0000E+00  0.0000E+00  0.0000E+00  0.0000E+00
      2.264 -0.4932E-06 -0.1255E-06 -0.1255E-06 -0.1255E-06  0.0000E+00  0.0000E+00  0.0000E+00  0.0000E+00  0.0000E+00
      4.165  0.1163E+00  0.2961E-01  0.2961E-01  0.2961E-01  0.0000E+00  0.0000E+00  0.0000E+00  0.0000E+00  0.0000E+00
      6.066 -0.5870E-16 -0.2973E-16 -0.2973E-16 -0.2973E-16  0.0000E+00  0.0000E+00  0.0000E+00  0.0000E+00  0.0000E+00
      7.967  0.7681E-01  0.3890E-01  0.3890E-01  0.3890E-01  0.0000E+00  0.0000E+00  0.0000E+00  0.0000E+00  0.0000E+00
      9.868 -0.1988E-28 -0.1936E-28 -0.1923E-28 -0.1944E-28  0.0000E+00  0.0000E+00  0.0000E+00  0.0000E+00  0.0000E+00
     11.769  0.5486E-01  0.3117E-01  0.3938E-01  0.3827E-01  0.0000E+00  0.0000E+00  0.0000E+00  0.0000E+00  0.0000E+00
     13.670  0.0000E+00  0.0000E+00  0.0000E+00  0.0000E+00  0.0000E+00  0.0000E+00  0.0000E+00  0.0000E+00  0.0000E+00
     13.67039808     -3.43982524   10      7.29482275      1.00000000
     -3.440 -0.6543E-44 -0.3040E-45 -0.3040E-45 -0.3040E-45  0.0000E+00  0.0000E+00  0.0000E+00  0.0000E+00  0.0000E+00
     -1.539  0.8295E-02  0.3853E-03  0.3853E-03  0.3853E-03  0.0000E+00  0.0000E+00  0.0000E+00  0.0000E+00  0.0000E+00
      0.362 -0.1336E-73 -0.3400E-74 -0.3400E-74 -0.3400E-74  0.0000E+00  0.0000E+00  0.0000E+00  0.0000E+00  0.0000E+00
      2.264 -0.4932E-06 -0.1255E-06 -0.1255E-06 -0.1255E-06  0.0000E+00  0.0000E+00  0.0000E+00  0.0000E+00  0.0000E+00
      4.165  0.1163E+00  0.2961E-01  0.2961E-01  0.2961E-01  0.0000E+00  0.0000E+00  0.0000E+00  0.0000E+00  0.0000E+00
      6.066 -0.5870E-16 -0.2973E-16 -0.2973E-16 -0.2973E-16  0.0000E+00  0.0000E+00  0.0000E+00  0.0000E+00  0.0000E+00
      7.967  0.7681E-01  0.3890E-01  0.3890E-01  0.3890E-01  0.0000E+00  0.0000E+00  0.0000E+00  0.0000E+00  0.0000E+00
      9.868 -0.2042E-28 -0.1886E-28 -0.1898E-28 -0.1932E-28  0.0000E+00  0.0000E+00  0.0000E+00  0.0000E+00  0.0000E+00
     11.769  0.4011E-01  0.2855E-01  0.3605E-01  0.3375E-01  0.0000E+00  0.0000E+00  0.0000E+00  0.0000E+00  0.0000E+00
     13.670  0.0000E+00  0.0000E+00  0.0000E+00  0.0000E+00  0.0000E+00  0.0000E+00  0.0000E+00  0.0000E+00  0.0000E+00
     13.67039808     -3.43982524   10      7.29482275      1.00000000
     -3.440 -0.6543E-44 -0.3040E-45 -0.3040E-45 -0.3040E-45  0.0000E+00  0.0000E+00  0.0000E+00  0.0000E+00  0.0000E+00
     -1.539  0.8295E-02  0.3853E-03  0.3853E-03  0.3853E-03  0.0000E+00  0.0000E+00  0.0000E+00  0.0000E+00  0.0000E+00
      0.362 -0.1336E-73 -0.3400E-74 -0.3400E-74 -0.3400E-74  0.0000E+00  0.0000E+00  0.0000E+00  0.0000E+00  0.0000E+00
      2.264 -0.4932E-06 -0.1255E-06 -0.1255E-06 -0.1255E-06  0.0000E+00  0.0000E+00  0.0000E+00  0.0000E+00  0.0000E+00
      4.165  0.1163E+00  0.2961E-01  0.2961E-01  0.2961E-01  0.0000E+00  0.0000E+00  0.0000E+00  0.0000E+00  0.0000E+00
      6.066 -0.5870E-16 -0.2973E-16 -0.2973E-16 -0.2973E-16  0.0000E+00  0.0000E+00  0.0000E+00  0.0000E+00  0.0000E+00
      7.967  0.7681E-01  0.3890E-01  0.3890E-01  0.3890E-01  0.0000E+00  0.0000E+00  0.0000E+00  0.0000E+00  0.0000E+00
      9.868 -0.2061E-28 -0.1918E-28 -0.1894E-28 -0.1872E-28  0.0000E+00  0.0000E+00  0.0000E+00  0.0000E+00  0.0000E+00
     11.769  0.7493E-01  0.3673E-01  0.4614E-01  0.3762E-01  0.0000E+00  0.0000E+00  0.0000E+00  0.0000E+00  0.0000E+00
     13.670  0.0000E+00  0.0000E+00  0.0000E+00  0.0000E+00  0.0000E+00  0.0000E+00  0.0000E+00  0.0000E+00  0.0000E+00
     13.67039808     -3.43982524   10      7.29482275      1.00000000
     -3.440 -0.6543E-44 -0.3040E-45 -0.3040E-45 -0.3040E-45  0.0000E+00  0.0000E+00  0.0000E+00  0.0000E+00  0.0000E+00
     -1.539  0.8295E-02  0.3853E-03  0.3853E-03  0.3853E-03  0.0000E+00  0.0000E+00  0.0000E+00  0.0000E+00  0.0000E+00
      0.362 -0.1336E-73 -0.3400E-74 -0.3400E-74 -0.3400E-74  0.0000E+00  0.0000E+00  0.0000E+00  0.0000E+00  0.0000E+00
      2.264 -0.4932E-06 -0.1255E-06 -0.1255E-06 -0.1255E-06  0.0000E+00  0.0000E+00  0.0000E+00  0.0000E+00  0.0000E+00
      4.165  0.1163E+00  0.2961E-01  0.2961E-01  0.2961E-01  0.0000E+00  0.0000E+00  0.0000E+00  0.0000E+00  0.0000E+00
      6.066 -0.5870E-16 -0.2973E-16 -0.2973E-16 -0.2973E-16  0.0000E+00  0.0000E+00  0.0000E+00  0.0000E+00  0.0000E+00
      7.967  0.7681E-01  0.3890E-01  0.3890E-01  0.3890E-01  0.0000E+00  0.0000E+00  0.0000E+00  0.0000E+00  0.0000E+00
      9.868 -0.2089E-28 -0.1874E-28 -0.1898E-28 -0.1865E-28  0.0000E+00  0.0000E+00  0.0000E+00  0.0000E+00  0.0000E+00
     11.769  0.7120E-01  0.3744E-01  0.4373E-01  0.3642E-01  0.0000E+00  0.0000E+00  0.0000E+00  0.0000E+00  0.0000E+00
     13.670  0.0000E+00  0.0000E+00  0.0000E+00  0.0000E+00  0.0000E+00  0.0000E+00  0.0000E+00  0.0000E+00  0.0000E+00
