   2   2   1   0
  0.2044415E+02  0.3866975E-09  0.3866975E-09  0.3866975E-09  0.5000000E-15
   1.0000000000000000E-004
  CAR 
 unknown system                          
     17.40489065     -7.11376789  301      5.34988354      1.00000000
     -7.114  0.0000E+00  0.0000E+00  0.0000E+00  0.0000E+00
     -7.032  0.0000E+00  0.0000E+00  0.0000E+00  0.0000E+00
     -6.950  0.0000E+00  0.0000E+00  0.0000E+00  0.0000E+00
     -6.869  0.0000E+00  0.0000E+00  0.0000E+00  0.0000E+00
     -6.787  0.0000E+00  0.0000E+00  0.0000E+00  0.0000E+00
     -6.705  0.0000E+00  0.0000E+00  0.0000E+00  0.0000E+00
     -6.623  0.0000E+00  0.0000E+00  0.0000E+00  0.0000E+00
     -6.542  0.0000E+00  0.0000E+00  0.0000E+00  0.0000E+00
     -6.460  0.0000E+00  0.0000E+00  0.0000E+00  0.0000E+00
     -6.378  0.0000E+00  0.0000E+00  0.0000E+00  0.0000E+00
     -6.296  0.0000E+00  0.0000E+00  0.0000E+00  0.0000E+00
     -6.215  0.0000E+00  0.0000E+00  0.0000E+00  0.0000E+00
     -6.133  0.0000E+00  0.0000E+00  0.0000E+00  0.0000E+00
     -6.051  0.0000E+00  0.0000E+00  0.0000E+00  0.0000E+00
     -5.970  0.4959E-01  0.4953E-01  0.5303E-02  0.5287E-02
     -5.888  0.6483E-01  0.6476E-01  0.9968E-02  0.9947E-02
     -5.806  0.8156E-01  0.8149E-01  0.1594E-01  0.1591E-01
     -5.724  0.9978E-01  0.9971E-01  0.2334E-01  0.2331E-01
     -5.643  0.1195E+00  0.1194E+00  0.3229E-01  0.3225E-01
     -5.561  0.1407E+00  0.1406E+00  0.4291E-01  0.4287E-01
     -5.479  0.1634E+00  0.1633E+00  0.5533E-01  0.5528E-01
     -5.397  0.1559E+00  0.1559E+00  0.6779E-01  0.6774E-01
     -5.316  0.1657E+00  0.1656E+00  0.8094E-01  0.8088E-01
     -5.234  0.1748E+00  0.1748E+00  0.9486E-01  0.9480E-01
     -5.152  0.1834E+00  0.1834E+00  0.1095E+00  0.1094E+00
     -5.071  0.1914E+00  0.1914E+00  0.1248E+00  0.1248E+00
     -4.989  0.1987E+00  0.1987E+00  0.1408E+00  0.1407E+00
     -4.907  0.2092E+00  0.2092E+00  0.1574E+00  0.1573E+00
     -4.825  0.2219E+00  0.2219E+00  0.1750E+00  0.1749E+00
     -4.744  0.2362E+00  0.2361E+00  0.1937E+00  0.1936E+00
     -4.662  0.2520E+00  0.2519E+00  0.2137E+00  0.2136E+00
     -4.580  0.2694E+00  0.2693E+00  0.2350E+00  0.2349E+00
     -4.498  0.2903E+00  0.2902E+00  0.2578E+00  0.2577E+00
     -4.417  0.3062E+00  0.3061E+00  0.2823E+00  0.2822E+00
     -4.335  0.3240E+00  0.3240E+00  0.3081E+00  0.3080E+00
     -4.253  0.3404E+00  0.3403E+00  0.3352E+00  0.3351E+00
     -4.172  0.3552E+00  0.3551E+00  0.3637E+00  0.3635E+00
     -4.090  0.3684E+00  0.3684E+00  0.3932E+00  0.3931E+00
     -4.008  0.4097E+00  0.4092E+00  0.4242E+00  0.4240E+00
     -3.926  0.5035E+00  0.5032E+00  0.4616E+00  0.4615E+00
     -3.845  0.5757E+00  0.5755E+00  0.5059E+00  0.5057E+00
     -3.763  0.4248E+00  0.4248E+00  0.5463E+00  0.5462E+00
     -3.681  0.4184E+00  0.4184E+00  0.5808E+00  0.5806E+00
     -3.599  0.4092E+00  0.4093E+00  0.6146E+00  0.6145E+00
     -3.518  0.3971E+00  0.3972E+00  0.6476E+00  0.6475E+00
     -3.436  0.3822E+00  0.3822E+00  0.6795E+00  0.6793E+00
     -3.354  0.3643E+00  0.3644E+00  0.7100E+00  0.7099E+00
     -3.273  0.3760E+00  0.3759E+00  0.7400E+00  0.7399E+00
     -3.191  0.3901E+00  0.3900E+00  0.7713E+00  0.7712E+00
     -3.109  0.3985E+00  0.3985E+00  0.8036E+00  0.8035E+00
     -3.027  0.4013E+00  0.4013E+00  0.8363E+00  0.8362E+00
     -2.946  0.6540E+00  0.6541E+00  0.8869E+00  0.8867E+00
     -2.864  0.6184E+00  0.6186E+00  0.9389E+00  0.9387E+00
     -2.782  0.0000E+00  0.0000E+00  0.1000E+01  0.1000E+01
     -2.700  0.0000E+00  0.0000E+00  0.1000E+01  0.1000E+01
     -2.619  0.0000E+00  0.0000E+00  0.1000E+01  0.1000E+01
     -2.537  0.0000E+00  0.0000E+00  0.1000E+01  0.1000E+01
     -2.455  0.0000E+00  0.0000E+00  0.1000E+01  0.1000E+01
     -2.373  0.0000E+00  0.0000E+00  0.1000E+01  0.1000E+01
     -2.292  0.0000E+00  0.0000E+00  0.1000E+01  0.1000E+01
     -2.210  0.0000E+00  0.0000E+00  0.1000E+01  0.1000E+01
     -2.128  0.0000E+00  0.0000E+00  0.1000E+01  0.1000E+01
     -2.047  0.0000E+00  0.0000E+00  0.1000E+01  0.1000E+01
     -1.965  0.0000E+00  0.0000E+00  0.1000E+01  0.1000E+01
     -1.883  0.0000E+00  0.0000E+00  0.1000E+01  0.1000E+01
     -1.801  0.0000E+00  0.0000E+00  0.1000E+01  0.1000E+01
     -1.720  0.0000E+00  0.0000E+00  0.1000E+01  0.1000E+01
     -1.638  0.0000E+00  0.0000E+00  0.1000E+01  0.1000E+01
     -1.556  0.0000E+00  0.0000E+00  0.1000E+01  0.1000E+01
     -1.474  0.0000E+00  0.0000E+00  0.1000E+01  0.1000E+01
     -1.393  0.0000E+00  0.0000E+00  0.1000E+01  0.1000E+01
     -1.311  0.0000E+00  0.0000E+00  0.1000E+01  0.1000E+01
     -1.229  0.1034E+01  0.1034E+01  0.1055E+01  0.1055E+01
     -1.148  0.6606E+00  0.6605E+00  0.1148E+01  0.1148E+01
     -1.066  0.6510E+00  0.6512E+00  0.1203E+01  0.1202E+01
     -0.984  0.6288E+00  0.6295E+00  0.1261E+01  0.1261E+01
     -0.902  0.5271E+00  0.5272E+00  0.1306E+01  0.1306E+01
     -0.821  0.5038E+00  0.5038E+00  0.1348E+01  0.1348E+01
     -0.739  0.4788E+00  0.4789E+00  0.1388E+01  0.1388E+01
     -0.657  0.4522E+00  0.4523E+00  0.1426E+01  0.1426E+01
     -0.575  0.4240E+00  0.4241E+00  0.1462E+01  0.1462E+01
     -0.494  0.3942E+00  0.3943E+00  0.1495E+01  0.1495E+01
     -0.412  0.3627E+00  0.3628E+00  0.1526E+01  0.1526E+01
     -0.330  0.3296E+00  0.3297E+00  0.1555E+01  0.1555E+01
     -0.249  0.2952E+00  0.2953E+00  0.1580E+01  0.1580E+01
     -0.167  0.2538E+00  0.2539E+00  0.1603E+01  0.1603E+01
     -0.085  0.2431E+00  0.2431E+00  0.1623E+01  0.1623E+01
     -0.003  0.2326E+00  0.2326E+00  0.1643E+01  0.1643E+01
      0.078  0.2225E+00  0.2225E+00  0.1661E+01  0.1661E+01
      0.160  0.2127E+00  0.2127E+00  0.1679E+01  0.1679E+01
      0.242  0.2032E+00  0.2032E+00  0.1696E+01  0.1696E+01
      0.324  0.1941E+00  0.1941E+00  0.1712E+01  0.1712E+01
      0.405  0.1852E+00  0.1853E+00  0.1728E+01  0.1728E+01
      0.487  0.1768E+00  0.1768E+00  0.1743E+01  0.1743E+01
      0.569  0.1686E+00  0.1686E+00  0.1757E+01  0.1757E+01
      0.650  0.1608E+00  0.1608E+00  0.1770E+01  0.1770E+01
      0.732  0.1531E+00  0.1532E+00  0.1783E+01  0.1783E+01
      0.814  0.1429E+00  0.1430E+00  0.1795E+01  0.1795E+01
      0.896  0.1334E+00  0.1334E+00  0.1806E+01  0.1806E+01
      0.977  0.1245E+00  0.1246E+00  0.1817E+01  0.1817E+01
      1.059  0.1175E+00  0.1175E+00  0.1827E+01  0.1827E+01
      1.141  0.1133E+00  0.1133E+00  0.1836E+01  0.1836E+01
      1.223  0.1091E+00  0.1091E+00  0.1845E+01  0.1845E+01
      1.304  0.1050E+00  0.1050E+00  0.1854E+01  0.1854E+01
      1.386  0.1010E+00  0.1010E+00  0.1862E+01  0.1862E+01
      1.468  0.9709E-01  0.9710E-01  0.1871E+01  0.1871E+01
      1.549  0.9323E-01  0.9324E-01  0.1878E+01  0.1878E+01
      1.631  0.8945E-01  0.8946E-01  0.1886E+01  0.1886E+01
      1.713  0.5782E+00  0.5781E+00  0.1979E+01  0.1979E+01
      1.795  0.5887E+00  0.5887E+00  0.2027E+01  0.2026E+01
      1.876  0.5945E+00  0.5944E+00  0.2075E+01  0.2075E+01
      1.958  0.5954E+00  0.5954E+00  0.2124E+01  0.2123E+01
      2.040  0.5914E+00  0.5915E+00  0.2172E+01  0.2172E+01
      2.122  0.5827E+00  0.5828E+00  0.2220E+01  0.2220E+01
      2.203  0.5692E+00  0.5692E+00  0.2267E+01  0.2267E+01
      2.285  0.5046E+00  0.5047E+00  0.2324E+01  0.2323E+01
      2.367  0.4696E+00  0.4697E+00  0.2364E+01  0.2364E+01
      2.449  0.4541E+00  0.4541E+00  0.2401E+01  0.2401E+01
      2.530  0.4403E+00  0.4404E+00  0.2438E+01  0.2438E+01
      2.612  0.4264E+00  0.4265E+00  0.2473E+01  0.2473E+01
      2.694  0.4124E+00  0.4125E+00  0.2508E+01  0.2508E+01
      2.775  0.8110E+00  0.8108E+00  0.2585E+01  0.2585E+01
      2.857  0.8480E+00  0.8478E+00  0.2653E+01  0.2652E+01
      2.939  0.8847E+00  0.8846E+00  0.2723E+01  0.2723E+01
      3.021  0.7685E+00  0.7685E+00  0.2804E+01  0.2804E+01
      3.102  0.7746E+00  0.7746E+00  0.2867E+01  0.2867E+01
      3.184  0.7778E+00  0.7779E+00  0.2931E+01  0.2931E+01
      3.266  0.7782E+00  0.7783E+00  0.2995E+01  0.2994E+01
      3.348  0.7758E+00  0.7759E+00  0.3058E+01  0.3058E+01
      3.429  0.7636E+00  0.7636E+00  0.3125E+01  0.3125E+01
      3.511  0.7233E+00  0.7234E+00  0.3185E+01  0.3185E+01
      3.593  0.7079E+00  0.7080E+00  0.3244E+01  0.3243E+01
      3.674  0.6955E+00  0.6956E+00  0.3301E+01  0.3301E+01
      3.756  0.9646E+00  0.9686E+00  0.3370E+01  0.3370E+01
      3.838  0.7679E+00  0.7682E+00  0.3436E+01  0.3436E+01
      3.920  0.7214E+00  0.7216E+00  0.3497E+01  0.3496E+01
      4.001  0.6756E+00  0.6759E+00  0.3554E+01  0.3554E+01
      4.083  0.6174E+00  0.6176E+00  0.3610E+01  0.3610E+01
      4.165  0.5534E+00  0.5536E+00  0.3661E+01  0.3661E+01
      4.247  0.5064E+00  0.5066E+00  0.3705E+01  0.3705E+01
      4.328  0.4661E+00  0.4663E+00  0.3744E+01  0.3744E+01
      4.410  0.4998E+00  0.5000E+00  0.3782E+01  0.3782E+01
      4.492  0.4606E+00  0.4608E+00  0.3821E+01  0.3821E+01
      4.573  0.4160E+00  0.4161E+00  0.3857E+01  0.3857E+01
      4.655  0.3637E+00  0.3638E+00  0.3889E+01  0.3889E+01
      4.737  0.2947E+00  0.2949E+00  0.3916E+01  0.3916E+01
      4.819  0.2092E+00  0.2093E+00  0.3937E+01  0.3937E+01
      4.900  0.1523E+00  0.1524E+00  0.3951E+01  0.3951E+01
      4.982  0.1284E+00  0.1284E+00  0.3962E+01  0.3962E+01
      5.064  0.1065E+00  0.1065E+00  0.3972E+01  0.3972E+01
      5.146  0.8651E-01  0.8652E-01  0.3980E+01  0.3980E+01
      5.227  0.6852E-01  0.6852E-01  0.3986E+01  0.3986E+01
      5.309  0.5250E-01  0.5250E-01  0.3991E+01  0.3991E+01
      5.391  0.0000E+00  0.0000E+00  0.4000E+01  0.4000E+01
      5.472  0.0000E+00  0.0000E+00  0.4000E+01  0.4000E+01
      5.554  0.0000E+00  0.0000E+00  0.4000E+01  0.4000E+01
      5.636  0.0000E+00  0.0000E+00  0.4000E+01  0.4000E+01
      5.718  0.0000E+00  0.0000E+00  0.4000E+01  0.4000E+01
      5.799  0.0000E+00  0.0000E+00  0.4000E+01  0.4000E+01
      5.881  0.0000E+00  0.0000E+00  0.4000E+01  0.4000E+01
      5.963  0.0000E+00  0.0000E+00  0.4000E+01  0.4000E+01
      6.045  0.0000E+00  0.0000E+00  0.4000E+01  0.4000E+01
      6.126  0.0000E+00  0.0000E+00  0.4000E+01  0.4000E+01
      6.208  0.0000E+00  0.0000E+00  0.4000E+01  0.4000E+01
      6.290  0.0000E+00  0.0000E+00  0.4000E+01  0.4000E+01
      6.371  0.0000E+00  0.0000E+00  0.4000E+01  0.4000E+01
      6.453  0.0000E+00  0.0000E+00  0.4000E+01  0.4000E+01
      6.535  0.0000E+00  0.0000E+00  0.4000E+01  0.4000E+01
      6.617  0.9936E-01  0.9929E-01  0.4018E+01  0.4018E+01
      6.698  0.1168E+00  0.1167E+00  0.4027E+01  0.4027E+01
      6.780  0.1357E+00  0.1356E+00  0.4037E+01  0.4037E+01
      6.862  0.1561E+00  0.1559E+00  0.4049E+01  0.4049E+01
      6.944  0.1778E+00  0.1777E+00  0.4063E+01  0.4063E+01
      7.025  0.1770E+00  0.1769E+00  0.4078E+01  0.4077E+01
      7.107  0.2015E+00  0.2014E+00  0.4093E+01  0.4093E+01
      7.189  0.2300E+00  0.2299E+00  0.4111E+01  0.4111E+01
      7.271  0.2686E+00  0.2683E+00  0.4131E+01  0.4131E+01
      7.352  0.3181E+00  0.3178E+00  0.4155E+01  0.4155E+01
      7.434  0.3774E+00  0.3770E+00  0.4183E+01  0.4183E+01
      7.516  0.4873E+00  0.4865E+00  0.4218E+01  0.4217E+01
      7.597  0.6268E+00  0.6260E+00  0.4263E+01  0.4263E+01
      7.679  0.8112E+00  0.8104E+00  0.4336E+01  0.4335E+01
      7.761  0.1116E+01  0.1115E+01  0.4407E+01  0.4407E+01
      7.843  0.1215E+01  0.1215E+01  0.4507E+01  0.4506E+01
      7.924  0.1273E+01  0.1273E+01  0.4609E+01  0.4608E+01
      8.006  0.1287E+01  0.1287E+01  0.4714E+01  0.4713E+01
      8.088  0.1017E+01  0.1018E+01  0.4834E+01  0.4833E+01
      8.170  0.8693E+00  0.8702E+00  0.4911E+01  0.4911E+01
      8.251  0.7211E+00  0.7221E+00  0.4976E+01  0.4976E+01
      8.333  0.5631E+00  0.5641E+00  0.5029E+01  0.5028E+01
      8.415  0.4022E+00  0.4033E+00  0.5068E+01  0.5068E+01
      8.496  0.1418E+00  0.1418E+00  0.5092E+01  0.5092E+01
      8.578  0.1753E+00  0.1751E+00  0.5105E+01  0.5105E+01
      8.660  0.2815E+00  0.2809E+00  0.5133E+01  0.5133E+01
      8.742  0.3478E+00  0.3471E+00  0.5159E+01  0.5159E+01
      8.823  0.4244E+00  0.4235E+00  0.5190E+01  0.5190E+01
      8.905  0.5110E+00  0.5100E+00  0.5228E+01  0.5228E+01
      8.987  0.6079E+00  0.6066E+00  0.5274E+01  0.5274E+01
      9.069  0.7162E+00  0.7135E+00  0.5328E+01  0.5328E+01
      9.150  0.1814E+01  0.1812E+01  0.5457E+01  0.5455E+01
      9.232  0.1555E+01  0.1554E+01  0.5593E+01  0.5592E+01
      9.314  0.4885E+00  0.4883E+00  0.5680E+01  0.5679E+01
      9.395  0.5327E+00  0.5325E+00  0.5721E+01  0.5721E+01
      9.477  0.5844E+00  0.5842E+00  0.5767E+01  0.5767E+01
      9.559  0.6287E+00  0.6285E+00  0.5817E+01  0.5816E+01
      9.641  0.6586E+00  0.6585E+00  0.5869E+01  0.5869E+01
      9.722  0.6641E+00  0.6641E+00  0.5928E+01  0.5927E+01
      9.804  0.6699E+00  0.6699E+00  0.5982E+01  0.5982E+01
      9.886  0.6376E+00  0.6376E+00  0.6060E+01  0.6060E+01
      9.968  0.6231E+00  0.6231E+00  0.6112E+01  0.6112E+01
     10.049  0.5495E+00  0.5496E+00  0.6162E+01  0.6162E+01
     10.131  0.5328E+00  0.5328E+00  0.6206E+01  0.6206E+01
     10.213  0.6770E+00  0.6768E+00  0.6262E+01  0.6261E+01
     10.294  0.7241E+00  0.7238E+00  0.6319E+01  0.6319E+01
     10.376  0.5628E+00  0.5628E+00  0.6376E+01  0.6375E+01
     10.458  0.5540E+00  0.5540E+00  0.6421E+01  0.6421E+01
     10.540  0.5463E+00  0.5463E+00  0.6466E+01  0.6466E+01
     10.621  0.6364E+00  0.6349E+00  0.6512E+01  0.6512E+01
     10.703  0.7986E+00  0.7970E+00  0.6571E+01  0.6571E+01
     10.785  0.9275E+00  0.9258E+00  0.6642E+01  0.6641E+01
     10.867  0.9921E+00  0.9938E+00  0.6747E+01  0.6747E+01
     10.948  0.7243E+00  0.7268E+00  0.6817E+01  0.6817E+01
     11.030  0.4430E+00  0.4466E+00  0.6865E+01  0.6865E+01
     11.112  0.3380E+00  0.3382E+00  0.6895E+01  0.6894E+01
     11.193  0.3258E+00  0.3259E+00  0.6922E+01  0.6922E+01
     11.275  0.3158E+00  0.3159E+00  0.6948E+01  0.6948E+01
     11.357  0.3081E+00  0.3082E+00  0.6973E+01  0.6973E+01
     11.439  0.3026E+00  0.3027E+00  0.6998E+01  0.6998E+01
     11.520  0.4243E+00  0.4237E+00  0.7026E+01  0.7026E+01
     11.602  0.5039E+00  0.5034E+00  0.7064E+01  0.7064E+01
     11.684  0.5665E+00  0.5662E+00  0.7108E+01  0.7107E+01
     11.766  0.6065E+00  0.6062E+00  0.7156E+01  0.7155E+01
     11.847  0.4466E+00  0.4465E+00  0.7202E+01  0.7202E+01
     11.929  0.4597E+00  0.4596E+00  0.7239E+01  0.7239E+01
     12.011  0.4707E+00  0.4707E+00  0.7277E+01  0.7277E+01
     12.093  0.4801E+00  0.4799E+00  0.7316E+01  0.7316E+01
     12.174  0.5096E+00  0.5094E+00  0.7356E+01  0.7356E+01
     12.256  0.5368E+00  0.5367E+00  0.7399E+01  0.7399E+01
     12.338  0.5619E+00  0.5618E+00  0.7444E+01  0.7444E+01
     12.419  0.5847E+00  0.5846E+00  0.7491E+01  0.7491E+01
     12.501  0.6062E+00  0.6060E+00  0.7540E+01  0.7539E+01
     12.583  0.6510E+00  0.6508E+00  0.7591E+01  0.7591E+01
     12.665  0.6947E+00  0.6945E+00  0.7646E+01  0.7646E+01
     12.746  0.7372E+00  0.7371E+00  0.7705E+01  0.7704E+01
     12.828  0.7787E+00  0.7785E+00  0.7767E+01  0.7766E+01
     12.910  0.1060E+01  0.1060E+01  0.7848E+01  0.7848E+01
     12.992  0.4897E+00  0.4903E+00  0.7951E+01  0.7951E+01
     13.073  0.4452E+00  0.4458E+00  0.7990E+01  0.7990E+01
     13.155  0.4056E+00  0.4061E+00  0.8024E+01  0.8024E+01
     13.237  0.3708E+00  0.3712E+00  0.8056E+01  0.8056E+01
     13.318  0.3408E+00  0.3412E+00  0.8085E+01  0.8085E+01
     13.400  0.3157E+00  0.3161E+00  0.8112E+01  0.8112E+01
     13.482  0.2977E+00  0.2982E+00  0.8137E+01  0.8137E+01
     13.564  0.3396E+00  0.3392E+00  0.8162E+01  0.8162E+01
     13.645  0.4091E+00  0.4089E+00  0.8193E+01  0.8193E+01
     13.727  0.4810E+00  0.4810E+00  0.8229E+01  0.8229E+01
     13.809  0.5297E+00  0.5298E+00  0.8283E+01  0.8283E+01
     13.891  0.5494E+00  0.5497E+00  0.8338E+01  0.8338E+01
     13.972  0.5328E+00  0.5332E+00  0.8406E+01  0.8406E+01
     14.054  0.5475E+00  0.5480E+00  0.8450E+01  0.8450E+01
     14.136  0.5572E+00  0.5578E+00  0.8495E+01  0.8496E+01
     14.217  0.5706E+00  0.5712E+00  0.8541E+01  0.8542E+01
     14.299  0.5800E+00  0.5808E+00  0.8588E+01  0.8589E+01
     14.381  0.5826E+00  0.5836E+00  0.8636E+01  0.8636E+01
     14.463  0.5785E+00  0.5796E+00  0.8684E+01  0.8684E+01
     14.544  0.5675E+00  0.5689E+00  0.8730E+01  0.8731E+01
     14.626  0.2340E+00  0.2346E+00  0.8768E+01  0.8769E+01
     14.708  0.2203E+00  0.2205E+00  0.8787E+01  0.8787E+01
     14.790  0.2072E+00  0.2071E+00  0.8804E+01  0.8805E+01
     14.871  0.1946E+00  0.1942E+00  0.8821E+01  0.8821E+01
     14.953  0.1825E+00  0.1819E+00  0.8836E+01  0.8837E+01
     15.035  0.1710E+00  0.1702E+00  0.8851E+01  0.8851E+01
     15.116  0.1600E+00  0.1590E+00  0.8864E+01  0.8864E+01
     15.198  0.1495E+00  0.1485E+00  0.8877E+01  0.8877E+01
     15.280  0.1396E+00  0.1385E+00  0.8888E+01  0.8889E+01
     15.362  0.1303E+00  0.1291E+00  0.8900E+01  0.8900E+01
     15.443  0.1215E+00  0.1203E+00  0.8910E+01  0.8910E+01
     15.525  0.1132E+00  0.1121E+00  0.8919E+01  0.8919E+01
     15.607  0.1295E+00  0.1258E+00  0.8929E+01  0.8929E+01
     15.689  0.1187E+00  0.1155E+00  0.8939E+01  0.8939E+01
     15.770  0.1082E+00  0.1055E+00  0.8948E+01  0.8948E+01
     15.852  0.9826E-01  0.9600E-01  0.8957E+01  0.8956E+01
     15.934  0.8873E-01  0.8689E-01  0.8964E+01  0.8964E+01
     16.015  0.7964E-01  0.7819E-01  0.8971E+01  0.8970E+01
     16.097  0.7099E-01  0.6991E-01  0.8977E+01  0.8977E+01
     16.179  0.6279E-01  0.6205E-01  0.8983E+01  0.8982E+01
     16.261  0.5502E-01  0.5459E-01  0.8988E+01  0.8987E+01
     16.342  0.0000E+00  0.0000E+00  0.9000E+01  0.9000E+01
     16.424  0.0000E+00  0.0000E+00  0.9000E+01  0.9000E+01
     16.506  0.0000E+00  0.0000E+00  0.9000E+01  0.9000E+01
     16.588  0.0000E+00  0.0000E+00  0.9000E+01  0.9000E+01
     16.669  0.0000E+00  0.0000E+00  0.9000E+01  0.9000E+01
     16.751  0.0000E+00  0.0000E+00  0.9000E+01  0.9000E+01
     16.833  0.0000E+00  0.0000E+00  0.9000E+01  0.9000E+01
     16.915  0.0000E+00  0.0000E+00  0.9000E+01  0.9000E+01
     16.996  0.0000E+00  0.0000E+00  0.9000E+01  0.9000E+01
     17.078  0.0000E+00  0.0000E+00  0.9000E+01  0.9000E+01
     17.160  0.0000E+00  0.0000E+00  0.9000E+01  0.9000E+01
     17.241  0.0000E+00  0.0000E+00  0.9000E+01  0.9000E+01
     17.323  0.0000E+00  0.0000E+00  0.9000E+01  0.9000E+01
     17.405  0.0000E+00  0.0000E+00  0.9000E+01  0.9000E+01
     17.40489065     -7.11376789  301      5.34988354      1.00000000
     -7.114  0.0000E+00  0.0000E+00  0.0000E+00  0.0000E+00  0.0000E+00  0.0000E+00  0.0000E+00  0.0000E+00  0.0000E+00  0.0000E+00  0.0000E+00  0.0000E+00  0.0000E+00  0.0000E+00  0.0000E+00  0.0000E+00  0.0000E+00  0.0000E+00
     -7.032  0.0000E+00  0.0000E+00  0.0000E+00  0.0000E+00  0.0000E+00  0.0000E+00  0.0000E+00  0.0000E+00  0.0000E+00  0.0000E+00  0.0000E+00  0.0000E+00  0.0000E+00  0.0000E+00  0.0000E+00  0.0000E+00  0.0000E+00  0.0000E+00
     -6.950  0.0000E+00  0.0000E+00  0.0000E+00  0.0000E+00  0.0000E+00  0.0000E+00  0.0000E+00  0.0000E+00  0.0000E+00  0.0000E+00  0.0000E+00  0.0000E+00  0.0000E+00  0.0000E+00  0.0000E+00  0.0000E+00  0.0000E+00  0.0000E+00
     -6.869  0.0000E+00  0.0000E+00  0.0000E+00  0.0000E+00  0.0000E+00  0.0000E+00  0.0000E+00  0.0000E+00  0.0000E+00  0.0000E+00  0.0000E+00  0.0000E+00  0.0000E+00  0.0000E+00  0.0000E+00  0.0000E+00  0.0000E+00  0.0000E+00
     -6.787  0.0000E+00  0.0000E+00  0.0000E+00  0.0000E+00  0.0000E+00  0.0000E+00  0.0000E+00  0.0000E+00  0.0000E+00  0.0000E+00  0.0000E+00  0.0000E+00  0.0000E+00  0.0000E+00  0.0000E+00  0.0000E+00  0.0000E+00  0.0000E+00
     -6.705  0.0000E+00  0.0000E+00  0.0000E+00  0.0000E+00  0.0000E+00  0.0000E+00  0.0000E+00  0.0000E+00  0.0000E+00  0.0000E+00  0.0000E+00  0.0000E+00  0.0000E+00  0.0000E+00  0.0000E+00  0.0000E+00  0.0000E+00  0.0000E+00
     -6.623  0.0000E+00  0.0000E+00  0.0000E+00  0.0000E+00  0.0000E+00  0.0000E+00  0.0000E+00  0.0000E+00  0.0000E+00  0.0000E+00  0.0000E+00  0.0000E+00  0.0000E+00  0.0000E+00  0.0000E+00  0.0000E+00  0.0000E+00  0.0000E+00
     -6.542  0.0000E+00  0.0000E+00  0.0000E+00  0.0000E+00  0.0000E+00  0.0000E+00  0.0000E+00  0.0000E+00  0.0000E+00  0.0000E+00  0.0000E+00  0.0000E+00  0.0000E+00  0.0000E+00  0.0000E+00  0.0000E+00  0.0000E+00  0.0000E+00
     -6.460  0.0000E+00  0.0000E+00  0.0000E+00  0.0000E+00  0.0000E+00  0.0000E+00  0.0000E+00  0.0000E+00  0.0000E+00  0.0000E+00  0.0000E+00  0.0000E+00  0.0000E+00  0.0000E+00  0.0000E+00  0.0000E+00  0.0000E+00  0.0000E+00
     -6.378  0.0000E+00  0.0000E+00  0.0000E+00  0.0000E+00  0.0000E+00  0.0000E+00  0.0000E+00  0.0000E+00  0.0000E+00  0.0000E+00  0.0000E+00  0.0000E+00  0.0000E+00  0.0000E+00  0.0000E+00  0.0000E+00  0.0000E+00  0.0000E+00
     -6.296  0.0000E+00  0.0000E+00  0.0000E+00  0.0000E+00  0.0000E+00  0.0000E+00  0.0000E+00  0.0000E+00  0.0000E+00  0.0000E+00  0.0000E+00  0.0000E+00  0.0000E+00  0.0000E+00  0.0000E+00  0.0000E+00  0.0000E+00  0.0000E+00
     -6.215  0.0000E+00  0.0000E+00  0.0000E+00  0.0000E+00  0.0000E+00  0.0000E+00  0.0000E+00  0.0000E+00  0.0000E+00  0.0000E+00  0.0000E+00  0.0000E+00  0.0000E+00  0.0000E+00  0.0000E+00  0.0000E+00  0.0000E+00  0.0000E+00
     -6.133  0.0000E+00  0.0000E+00  0.0000E+00  0.0000E+00  0.0000E+00  0.0000E+00  0.0000E+00  0.0000E+00  0.0000E+00  0.0000E+00  0.0000E+00  0.0000E+00  0.0000E+00  0.0000E+00  0.0000E+00  0.0000E+00  0.0000E+00  0.0000E+00
     -6.051  0.0000E+00  0.0000E+00  0.0000E+00  0.0000E+00  0.0000E+00  0.0000E+00  0.0000E+00  0.0000E+00  0.0000E+00  0.0000E+00  0.0000E+00  0.0000E+00  0.0000E+00  0.0000E+00  0.0000E+00  0.0000E+00  0.0000E+00  0.0000E+00
     -5.970  0.1043E-01  0.1042E-01  0.3789E-04  0.3783E-04  0.3789E-04  0.3783E-04  0.1156E-03  0.1154E-03  0.0000E+00  0.0000E+00  0.0000E+00  0.0000E+00  0.0000E+00  0.0000E+00  0.0000E+00  0.0000E+00  0.0000E+00  0.0000E+00
     -5.888  0.1362E-01  0.1360E-01  0.5913E-04  0.5907E-04  0.5913E-04  0.5907E-04  0.1827E-03  0.1825E-03  0.0000E+00  0.0000E+00  0.0000E+00  0.0000E+00  0.0000E+00  0.0000E+00  0.0000E+00  0.0000E+00  0.0000E+00  0.0000E+00
     -5.806  0.1712E-01  0.1710E-01  0.8420E-04  0.8413E-04  0.8420E-04  0.8413E-04  0.2596E-03  0.2593E-03  0.0000E+00  0.0000E+00  0.0000E+00  0.0000E+00  0.0000E+00  0.0000E+00  0.0000E+00  0.0000E+00  0.0000E+00  0.0000E+00
     -5.724  0.2093E-01  0.2091E-01  0.1131E-03  0.1130E-03  0.1131E-03  0.1130E-03  0.3461E-03  0.3459E-03  0.0000E+00  0.0000E+00  0.0000E+00  0.0000E+00  0.0000E+00  0.0000E+00  0.0000E+00  0.0000E+00  0.0000E+00  0.0000E+00
     -5.643  0.2505E-01  0.2503E-01  0.1458E-03  0.1457E-03  0.1458E-03  0.1457E-03  0.4424E-03  0.4422E-03  0.0000E+00  0.0000E+00  0.0000E+00  0.0000E+00  0.0000E+00  0.0000E+00  0.0000E+00  0.0000E+00  0.0000E+00  0.0000E+00
     -5.561  0.2948E-01  0.2946E-01  0.1823E-03  0.1823E-03  0.1823E-03  0.1823E-03  0.5484E-03  0.5482E-03  0.0000E+00  0.0000E+00  0.0000E+00  0.0000E+00  0.0000E+00  0.0000E+00  0.0000E+00  0.0000E+00  0.0000E+00  0.0000E+00
     -5.479  0.3422E-01  0.3420E-01  0.2227E-03  0.2226E-03  0.2227E-03  0.2226E-03  0.6641E-03  0.6639E-03  0.0000E+00  0.0000E+00  0.0000E+00  0.0000E+00  0.0000E+00  0.0000E+00  0.0000E+00  0.0000E+00  0.0000E+00  0.0000E+00
     -5.397  0.3256E-01  0.3254E-01  0.3188E-03  0.3188E-03  0.4640E-03  0.4637E-03  0.6212E-03  0.6212E-03  0.0000E+00  0.0000E+00  0.0000E+00  0.0000E+00  0.0000E+00  0.0000E+00  0.0000E+00  0.0000E+00  0.0000E+00  0.0000E+00
     -5.316  0.3458E-01  0.3456E-01  0.3704E-03  0.3704E-03  0.5796E-03  0.5793E-03  0.6646E-03  0.6647E-03  0.0000E+00  0.0000E+00  0.0000E+00  0.0000E+00  0.0000E+00  0.0000E+00  0.0000E+00  0.0000E+00  0.0000E+00  0.0000E+00
     -5.234  0.3647E-01  0.3646E-01  0.4183E-03  0.4183E-03  0.6991E-03  0.6988E-03  0.7118E-03  0.7118E-03  0.0000E+00  0.0000E+00  0.0000E+00  0.0000E+00  0.0000E+00  0.0000E+00  0.0000E+00  0.0000E+00  0.0000E+00  0.0000E+00
     -5.152  0.3825E-01  0.3823E-01  0.4625E-03  0.4625E-03  0.8224E-03  0.8221E-03  0.7627E-03  0.7627E-03  0.0000E+00  0.0000E+00  0.0000E+00  0.0000E+00  0.0000E+00  0.0000E+00  0.0000E+00  0.0000E+00  0.0000E+00  0.0000E+00
     -5.071  0.3990E-01  0.3988E-01  0.5029E-03  0.5030E-03  0.9496E-03  0.9493E-03  0.8173E-03  0.8173E-03  0.0000E+00  0.0000E+00  0.0000E+00  0.0000E+00  0.0000E+00  0.0000E+00  0.0000E+00  0.0000E+00  0.0000E+00  0.0000E+00
     -4.989  0.4142E-01  0.4141E-01  0.5398E-03  0.5398E-03  0.1081E-02  0.1080E-02  0.8756E-03  0.8756E-03  0.0000E+00  0.0000E+00  0.0000E+00  0.0000E+00  0.0000E+00  0.0000E+00  0.0000E+00  0.0000E+00  0.0000E+00  0.0000E+00
     -4.907  0.4361E-01  0.4359E-01  0.5869E-03  0.5869E-03  0.1201E-02  0.1200E-02  0.9690E-03  0.9688E-03  0.0000E+00  0.0000E+00  0.0000E+00  0.0000E+00  0.0000E+00  0.0000E+00  0.0000E+00  0.0000E+00  0.0000E+00  0.0000E+00
     -4.825  0.4627E-01  0.4625E-01  0.6438E-03  0.6438E-03  0.1320E-02  0.1320E-02  0.1089E-02  0.1088E-02  0.0000E+00  0.0000E+00  0.0000E+00  0.0000E+00  0.0000E+00  0.0000E+00  0.0000E+00  0.0000E+00  0.0000E+00  0.0000E+00
     -4.744  0.4927E-01  0.4925E-01  0.7082E-03  0.7081E-03  0.1441E-02  0.1441E-02  0.1228E-02  0.1228E-02  0.0000E+00  0.0000E+00  0.0000E+00  0.0000E+00  0.0000E+00  0.0000E+00  0.0000E+00  0.0000E+00  0.0000E+00  0.0000E+00
     -4.662  0.5260E-01  0.5258E-01  0.7800E-03  0.7799E-03  0.1565E-02  0.1565E-02  0.1388E-02  0.1388E-02  0.0000E+00  0.0000E+00  0.0000E+00  0.0000E+00  0.0000E+00  0.0000E+00  0.0000E+00  0.0000E+00  0.0000E+00  0.0000E+00
     -4.580  0.5627E-01  0.5624E-01  0.8593E-03  0.8592E-03  0.1691E-02  0.1691E-02  0.1568E-02  0.1568E-02  0.0000E+00  0.0000E+00  0.0000E+00  0.0000E+00  0.0000E+00  0.0000E+00  0.0000E+00  0.0000E+00  0.0000E+00  0.0000E+00
     -4.498  0.6070E-01  0.6067E-01  0.9530E-03  0.9528E-03  0.1828E-02  0.1828E-02  0.1783E-02  0.1782E-02  0.0000E+00  0.0000E+00  0.0000E+00  0.0000E+00  0.0000E+00  0.0000E+00  0.0000E+00  0.0000E+00  0.0000E+00  0.0000E+00
     -4.417  0.6410E-01  0.6407E-01  0.1042E-02  0.1042E-02  0.2021E-02  0.2020E-02  0.1986E-02  0.1986E-02  0.0000E+00  0.0000E+00  0.0000E+00  0.0000E+00  0.0000E+00  0.0000E+00  0.0000E+00  0.0000E+00  0.0000E+00  0.0000E+00
     -4.335  0.6793E-01  0.6791E-01  0.1111E-02  0.1111E-02  0.2204E-02  0.2204E-02  0.2195E-02  0.2195E-02  0.0000E+00  0.0000E+00  0.0000E+00  0.0000E+00  0.0000E+00  0.0000E+00  0.0000E+00  0.0000E+00  0.0000E+00  0.0000E+00
     -4.253  0.7144E-01  0.7142E-01  0.1174E-02  0.1174E-02  0.2401E-02  0.2401E-02  0.2391E-02  0.2391E-02  0.0000E+00  0.0000E+00  0.0000E+00  0.0000E+00  0.0000E+00  0.0000E+00  0.0000E+00  0.0000E+00  0.0000E+00  0.0000E+00
     -4.172  0.7463E-01  0.7461E-01  0.1230E-02  0.1230E-02  0.2612E-02  0.2611E-02  0.2574E-02  0.2574E-02  0.0000E+00  0.0000E+00  0.0000E+00  0.0000E+00  0.0000E+00  0.0000E+00  0.0000E+00  0.0000E+00  0.0000E+00  0.0000E+00
     -4.090  0.7749E-01  0.7747E-01  0.1280E-02  0.1280E-02  0.2836E-02  0.2836E-02  0.2744E-02  0.2743E-02  0.0000E+00  0.0000E+00  0.0000E+00  0.0000E+00  0.0000E+00  0.0000E+00  0.0000E+00  0.0000E+00  0.0000E+00  0.0000E+00
     -4.008  0.8635E-01  0.8625E-01  0.1456E-02  0.1454E-02  0.3207E-02  0.3205E-02  0.3299E-02  0.3294E-02  0.0000E+00  0.0000E+00  0.0000E+00  0.0000E+00  0.0000E+00  0.0000E+00  0.0000E+00  0.0000E+00  0.0000E+00  0.0000E+00
     -3.926  0.1065E+00  0.1064E+00  0.1816E-02  0.1815E-02  0.3846E-02  0.3843E-02  0.4372E-02  0.4369E-02  0.0000E+00  0.0000E+00  0.0000E+00  0.0000E+00  0.0000E+00  0.0000E+00  0.0000E+00  0.0000E+00  0.0000E+00  0.0000E+00
     -3.845  0.1222E+00  0.1221E+00  0.2079E-02  0.2079E-02  0.4443E-02  0.4441E-02  0.5134E-02  0.5132E-02  0.0000E+00  0.0000E+00  0.0000E+00  0.0000E+00  0.0000E+00  0.0000E+00  0.0000E+00  0.0000E+00  0.0000E+00  0.0000E+00
     -3.763  0.8950E-01  0.8950E-01  0.1490E-02  0.1491E-02  0.4206E-02  0.4206E-02  0.3642E-02  0.3643E-02  0.0000E+00  0.0000E+00  0.0000E+00  0.0000E+00  0.0000E+00  0.0000E+00  0.0000E+00  0.0000E+00  0.0000E+00  0.0000E+00
     -3.681  0.8813E-01  0.8813E-01  0.1441E-02  0.1441E-02  0.4448E-02  0.4447E-02  0.3546E-02  0.3547E-02  0.0000E+00  0.0000E+00  0.0000E+00  0.0000E+00  0.0000E+00  0.0000E+00  0.0000E+00  0.0000E+00  0.0000E+00  0.0000E+00
     -3.599  0.8613E-01  0.8613E-01  0.1377E-02  0.1377E-02  0.4660E-02  0.4659E-02  0.3422E-02  0.3422E-02  0.0000E+00  0.0000E+00  0.0000E+00  0.0000E+00  0.0000E+00  0.0000E+00  0.0000E+00  0.0000E+00  0.0000E+00  0.0000E+00
     -3.518  0.8351E-01  0.8351E-01  0.1297E-02  0.1297E-02  0.4842E-02  0.4842E-02  0.3268E-02  0.3269E-02  0.0000E+00  0.0000E+00  0.0000E+00  0.0000E+00  0.0000E+00  0.0000E+00  0.0000E+00  0.0000E+00  0.0000E+00  0.0000E+00
     -3.436  0.8026E-01  0.8027E-01  0.1201E-02  0.1202E-02  0.4994E-02  0.4994E-02  0.3086E-02  0.3087E-02  0.0000E+00  0.0000E+00  0.0000E+00  0.0000E+00  0.0000E+00  0.0000E+00  0.0000E+00  0.0000E+00  0.0000E+00  0.0000E+00
     -3.354  0.7639E-01  0.7640E-01  0.1091E-02  0.1091E-02  0.5116E-02  0.5116E-02  0.2874E-02  0.2875E-02  0.0000E+00  0.0000E+00  0.0000E+00  0.0000E+00  0.0000E+00  0.0000E+00  0.0000E+00  0.0000E+00  0.0000E+00  0.0000E+00
     -3.273  0.7878E-01  0.7877E-01  0.1110E-02  0.1110E-02  0.5649E-02  0.5647E-02  0.2858E-02  0.2858E-02  0.0000E+00  0.0000E+00  0.0000E+00  0.0000E+00  0.0000E+00  0.0000E+00  0.0000E+00  0.0000E+00  0.0000E+00  0.0000E+00
     -3.191  0.8168E-01  0.8167E-01  0.1133E-02  0.1133E-02  0.6232E-02  0.6230E-02  0.2855E-02  0.2855E-02  0.0000E+00  0.0000E+00  0.0000E+00  0.0000E+00  0.0000E+00  0.0000E+00  0.0000E+00  0.0000E+00  0.0000E+00  0.0000E+00
     -3.109  0.8337E-01  0.8336E-01  0.1123E-02  0.1123E-02  0.6755E-02  0.6753E-02  0.2810E-02  0.2810E-02  0.0000E+00  0.0000E+00  0.0000E+00  0.0000E+00  0.0000E+00  0.0000E+00  0.0000E+00  0.0000E+00  0.0000E+00  0.0000E+00
     -3.027  0.8385E-01  0.8384E-01  0.1079E-02  0.1079E-02  0.7217E-02  0.7216E-02  0.2722E-02  0.2723E-02  0.0000E+00  0.0000E+00  0.0000E+00  0.0000E+00  0.0000E+00  0.0000E+00  0.0000E+00  0.0000E+00  0.0000E+00  0.0000E+00