<?xml version="1.0" encoding="ISO-8859-1"?>
<modeling>
 <generator>
  <i name="program" type="string">vasp </i>
  <i name="version" type="string">5.4.4.18Apr17-6-g9f103f2a35  </i>
  <i name="subversion" type="string">(build Dec 20 2017 16:09:56) complex            parallel </i>
  <i name="platform" type="string">LinuxIFC </i>
  <i name="date" type="string">2018 04 05 </i>
  <i name="time" type="string">16:25:14 </i>
 </generator>
 <incar>
  <i type="int" name="ISTART">     0</i>
  <i type="string" name="PREC">accurate</i>
  <i type="string" name="ALGO"> F</i>
  <i type="int" name="NSIM">     4</i>
  <i type="logical" name="ADDGRID"> T  </i>
  <i type="int" name="ISPIN">     1</i>
  <i type="int" name="MAXMIX">    40</i>
  <i type="int" name="ICHARG">     2</i>
  <i type="int" name="NELMIN">     7</i>
  <i type="int" name="IBRION">    -1</i>
  <i name="EDIFF">      0.00000001</i>
  <i name="EDIFFG">     -0.00100000</i>
  <i type="int" name="NSW">     0</i>
  <i name="ENCUT">    500.00000000</i>
  <i name="POTIM">      0.10000000</i>
  <i type="int" name="NEDOS">    10</i>
  <i type="logical" name="LREAL"> F  </i>
  <i type="logical" name="LPLANE"> T  </i>
  <i type="int" name="ISMEAR">     1</i>
  <i name="SIGMA">      0.20000000</i>
  <i type="logical" name="LWAVE"> F  </i>
  <i type="logical" name="LCHARG"> F  </i>
  <i type="int" name="LORBIT">    11</i>
  <i type="logical" name="LASPH"> T  </i>
  <v type="int" name="KPOINT_BSE">    -1     0     0     0</v>
  <i type="string" name="GGA"> PE</i>
  <i type="logical" name="LASPH"> T  </i>
 </incar>
 <structure name="primitive_cell" >
  <crystal>
   <varray name="basis" >
    <v>       2.02000000       2.02000000      -0.00000000 </v>
    <v>       2.02000000       0.00000000      -2.02000000 </v>
    <v>       0.00000000       2.02000000      -2.02000000 </v>
   </varray>
   <i name="volume">     16.48481600 </i>
   <varray name="rec_basis" >
    <v>       0.24752475       0.24752475       0.24752475 </v>
    <v>       0.24752475      -0.24752475      -0.24752475 </v>
    <v>      -0.24752475       0.24752475      -0.24752475 </v>
   </varray>
  </crystal>
  <varray name="positions" >
   <v>       0.00000000       0.00000000       0.00000000 </v>
  </varray>
 </structure>
 <varray name="primitive_index" >
  <v type="int" >        1 </v>
 </varray>
 <kpoints>
  <generation param="Monkhorst-Pack">
   <v type="int" name="divisions">       2        2        2 </v>
   <v name="usershift">      0.00000000       0.00000000       0.00000000 </v>
   <v name="genvec1">      0.50000000       0.00000000       0.00000000 </v>
   <v name="genvec2">      0.00000000       0.50000000       0.00000000 </v>
   <v name="genvec3">      0.00000000       0.00000000       0.50000000 </v>
   <v name="shift">      0.50000000       0.50000000       0.50000000 </v>
  </generation>
  <varray name="kpointlist" >
   <v>       0.25000000       0.25000000       0.25000000 </v>
  </varray>
  <varray name="weights" >
   <v>       1.00000000 </v>
  </varray>
 </kpoints>
 <parameters>
  <separator name="general" >
   <i type="string" name="SYSTEM">unknown system</i>
   <i type="logical" name="LCOMPAT"> F  </i>
  </separator>
  <separator name="electronic" >
   <i type="string" name="PREC">accura</i>
   <i name="ENMAX">    500.00000000</i>
   <i name="ENAUG">    291.05200000</i>
   <i name="EDIFF">      0.00000001</i>
   <i type="int" name="IALGO">    68</i>
   <i type="int" name="IWAVPR">    10</i>
   <i type="int" name="NBANDS">    10</i>
   <i name="NELECT">     12.00000000</i>
   <i type="int" name="TURBO">     0</i>
   <i type="int" name="IRESTART">     0</i>
   <i type="int" name="NREBOOT">     0</i>
   <i type="int" name="NMIN">     0</i>
   <i name="EREF">      0.00000000</i>
   <separator name="electronic smearing" >
    <i type="int" name="ISMEAR">     1</i>
    <i name="SIGMA">      0.20000000</i>
    <i name="KSPACING">      0.50000000</i>
    <i type="logical" name="KGAMMA"> T  </i>
   </separator>
   <separator name="electronic projectors" >
    <i type="logical" name="LREAL"> F  </i>
    <v name="ROPT">      0.00000000</v>
    <i type="int" name="LMAXPAW">  -100</i>
    <i type="int" name="LMAXMIX">     2</i>
    <i type="logical" name="NLSPLINE"> F  </i>
   </separator>
   <separator name="electronic startup" >
    <i type="int" name="ISTART">     0</i>
    <i type="int" name="ICHARG">     2</i>
    <i type="int" name="INIWAV">     1</i>
   </separator>
   <separator name="electronic spin" >
    <i type="int" name="ISPIN">     1</i>
    <i type="logical" name="LNONCOLLINEAR"> F  </i>
    <v name="MAGMOM">      1.00000000      1.00000000      1.00000000      1.00000000</v>
    <i name="NUPDOWN">     -1.00000000</i>
    <i type="logical" name="LSORBIT"> F  </i>
    <v name="SAXIS">      0.00000000      0.00000000      1.00000000</v>
    <i type="logical" name="LSPIRAL"> F  </i>
    <v name="QSPIRAL">      0.00000000      0.00000000      0.00000000</v>
    <i type="logical" name="LZEROZ"> F  </i>
   </separator>
   <separator name="electronic exchange-correlation" >
    <i type="logical" name="LASPH"> T  </i>
    <i type="logical" name="LMETAGGA"> F  </i>
   </separator>
   <separator name="electronic convergence" >
    <i type="int" name="NELM">    60</i>
    <i type="int" name="NELMDL">    -5</i>
    <i type="int" name="NELMIN">     7</i>
    <i name="ENINI">    500.00000000</i>
    <separator name="electronic convergence detail" >
     <i type="logical" name="LDIAG"> T  </i>
     <i type="logical" name="LSUBROT"> F  </i>
     <i name="WEIMIN">      0.00000000</i>
     <i name="EBREAK">      0.00000000</i>
     <i name="DEPER">      0.30000000</i>
     <i type="int" name="NRMM">     4</i>
     <i name="TIME">      0.40000000</i>
    </separator>
   </separator>
   <separator name="electronic mixer" >
    <i name="AMIX">      0.40000000</i>
    <i name="BMIX">      1.00000000</i>
    <i name="AMIN">      0.10000000</i>
    <i name="AMIX_MAG">      1.60000000</i>
    <i name="BMIX_MAG">      1.00000000</i>
    <separator name="electronic mixer details" >
     <i type="int" name="IMIX">     4</i>
     <i type="logical" name="MIXFIRST"> F  </i>
     <i type="int" name="MAXMIX">    40</i>
     <i name="WC">    100.00000000</i>
     <i type="int" name="INIMIX">     1</i>
     <i type="int" name="MIXPRE">     1</i>
     <i type="int" name="MREMOVE">     5</i>
    </separator>
   </separator>
   <separator name="electronic dipolcorrection" >
    <i type="logical" name="LDIPOL"> F  </i>
    <i type="logical" name="LMONO"> F  </i>
    <i type="int" name="IDIPOL">     0</i>
    <i name="EPSILON">      1.00000000</i>
    <v name="DIPOL">   -100.00000000   -100.00000000   -100.00000000</v>
    <i name="EFIELD">      0.00000000</i>
   </separator>
  </separator>
  <separator name="grids" >
   <i type="int" name="NGX">    30</i>
   <i type="int" name="NGY">    30</i>
   <i type="int" name="NGZ">    30</i>
   <i type="int" name="NGXF">    60</i>
   <i type="int" name="NGYF">    60</i>
   <i type="int" name="NGZF">    60</i>
   <i type="logical" name="ADDGRID"> T  </i>
  </separator>
  <separator name="ionic" >
   <i type="int" name="NSW">     0</i>
   <i type="int" name="IBRION">    -1</i>
   <i type="int" name="MDALGO">     0</i>
   <i type="int" name="ISIF">     2</i>
   <i name="PSTRESS">      0.00000000</i>
   <i name="EDIFFG">     -0.00100000</i>
   <i type="int" name="NFREE">     0</i>
   <i name="POTIM">      0.10000000</i>
   <i name="SMASS">     -3.00000000</i>
   <i name="SCALEE">      1.00000000</i>
  </separator>
  <separator name="ionic md" >
   <i name="TEBEG">      0.00010000</i>
   <i name="TEEND">      0.00010000</i>
   <i type="int" name="NBLOCK">     1</i>
   <i type="int" name="KBLOCK">     1</i>
   <i type="int" name="NPACO">   256</i>
   <i name="APACO">     16.00000000</i>
  </separator>
  <separator name="symmetry" >
   <i type="int" name="ISYM">     2</i>
   <i name="SYMPREC">      0.00001000</i>
  </separator>
  <separator name="dos" >
   <i type="int" name="LORBIT">    11</i>
   <v name="RWIGS">     -1.00000000</v>
   <i type="int" name="NEDOS">    10</i>
   <i name="EMIN">     10.00000000</i>
   <i name="EMAX">    -10.00000000</i>
   <i name="EFERMI">      0.00000000</i>
  </separator>
  <separator name="writing" >
   <i type="int" name="NWRITE">     2</i>
   <i type="logical" name="LWAVE"> F  </i>
   <i type="logical" name="LDOWNSAMPLE"> F  </i>
   <i type="logical" name="LCHARG"> F  </i>
   <i type="logical" name="LPARD"> F  </i>
   <i type="logical" name="LVTOT"> F  </i>
   <i type="logical" name="LVHAR"> F  </i>
   <i type="logical" name="LELF"> F  </i>
   <i type="logical" name="LOPTICS"> F  </i>
   <v name="STM">      0.00000000      0.00000000      0.00000000      0.00000000      0.00000000      0.00000000      0.00000000</v>
  </separator>
  <separator name="performance" >
   <i type="int" name="NPAR">     1</i>
   <i type="int" name="NSIM">     4</i>
   <i type="int" name="NBLK">    -1</i>
   <i type="logical" name="LPLANE"> T  </i>
   <i type="logical" name="LSCALAPACK"> T  </i>
   <i type="logical" name="LSCAAWARE"> F  </i>
   <i type="logical" name="LSCALU"> F  </i>
   <i type="logical" name="LASYNC"> F  </i>
   <i type="logical" name="LORBITALREAL"> F  </i>
  </separator>
  <separator name="miscellaneous" >
   <i type="int" name="IDIOT">     3</i>
   <i type="int" name="ISPECIAL">     0</i>
   <i type="logical" name="LMUSIC"> F  </i>
   <v name="POMASS">     26.98100000</v>
   <v name="DARWINR">      0.00000000</v>
   <v name="DARWINV">      1.00000000</v>
   <i type="logical" name="LCORR"> T  </i>
  </separator>
  <i type="logical" name="GGA_COMPAT"> T  </i>
  <i type="logical" name="LBERRY"> F  </i>
  <i type="int" name="ICORELEVEL">     0</i>
  <i type="logical" name="LDAU"> F  </i>
  <i type="int" name="I_CONSTRAINED_M">     0</i>
  <separator name="electronic exchange-correlation" >
   <i type="string" name="GGA">PE</i>
   <i type="int" name="VOSKOWN">     0</i>
   <i type="logical" name="LHFCALC"> F  </i>
   <i type="string" name="PRECFOCK"></i>
   <i type="logical" name="LSYMGRAD"> F  </i>
   <i type="logical" name="LHFONE"> F  </i>
   <i type="logical" name="LRHFCALC"> F  </i>
   <i type="logical" name="LTHOMAS"> F  </i>
   <i type="logical" name="LMODELHF"> F  </i>
   <i name="ENCUT4O">     -1.00000000</i>
   <i type="int" name="EXXOEP">     0</i>
   <i type="int" name="FOURORBIT">     0</i>
   <i name="AEXX">      0.00000000</i>
   <i name="HFALPHA">      0.00000000</i>
   <i name="MCALPHA">      0.00000000</i>
   <i name="ALDAX">      1.00000000</i>
   <i name="AGGAX">      1.00000000</i>
   <i name="ALDAC">      1.00000000</i>
   <i name="AGGAC">      1.00000000</i>
   <i type="int" name="NKREDX">     1</i>
   <i type="int" name="NKREDY">     1</i>
   <i type="int" name="NKREDZ">     1</i>
   <i type="logical" name="SHIFTRED"> F  </i>
   <i type="logical" name="ODDONLY"> F  </i>
   <i type="logical" name="EVENONLY"> F  </i>
   <i type="int" name="LMAXFOCK">     0</i>
   <i type="int" name="NMAXFOCKAE">     0</i>
   <i type="logical" name="LFOCKAEDFT"> F  </i>
   <i name="HFSCREEN">      0.00000000</i>
   <i name="HFSCREENC">      0.00000000</i>
   <i type="int" name="NBANDSGWLOW">     0</i>
  </separator>
  <separator name="vdW DFT" >
   <i type="logical" name="LUSE_VDW"> F  </i>
   <i name="Zab_VDW">     -0.84910000</i>
   <i name="PARAM1">      0.12340000</i>
   <i name="PARAM2">      1.00000000</i>
   <i name="PARAM3">      0.00000000</i>
  </separator>
  <separator name="model GW" >
   <i type="int" name="MODEL_GW">     0</i>
   <i name="MODEL_EPS0">      9.89088960</i>
   <i name="MODEL_ALPHA">      1.00000000</i>
  </separator>
  <separator name="linear response parameters" >
   <i type="logical" name="LEPSILON"> F  </i>
   <i type="logical" name="LRPA"> F  </i>
   <i type="logical" name="LNABLA"> F  </i>
   <i type="logical" name="LVEL"> F  </i>
   <i type="int" name="KINTER">     0</i>
   <i name="CSHIFT">      0.10000000</i>
   <i name="OMEGAMAX">     -1.00000000</i>
   <i name="DEG_THRESHOLD">      0.00200000</i>
   <i name="RTIME">     -0.10000000</i>
   <i name="WPLASMAI">      0.00000000</i>
   <v name="DFIELD">      0.00000000      0.00000000      0.00000000</v>
   <v name="WPLASMA">      0.00000000      0.00000000      0.00000000      0.00000000      0.00000000      0.00000000      0.00000000      0.00000000      0.00000000</v>
  </separator>
  <separator name="orbital magnetization" >
   <i type="logical" name="NUCIND"> F  </i>
   <v name="MAGPOS">      0.00000000      0.00000000      0.00000000</v>
   <i type="logical" name="LNICSALL"> T  </i>
   <i type="logical" name="ORBITALMAG"> F  </i>
   <i type="logical" name="LMAGBLOCH"> F  </i>
   <i type="logical" name="LCHIMAG"> F  </i>
   <i type="logical" name="LGAUGE"> T  </i>
   <i type="int" name="MAGATOM">     0</i>
   <v name="MAGDIPOL">      0.00000000      0.00000000      0.00000000</v>
   <v name="AVECCONST">      0.00000000      0.00000000      0.00000000</v>
  </separator>
  <separator name="response functions" >
   <i type="logical" name="LADDER"> F  </i>
   <i type="logical" name="LRPAFORCE"> F  </i>
   <i type="logical" name="LFXC"> F  </i>
   <i type="logical" name="LHARTREE"> T  </i>
   <i type="int" name="IBSE">     0</i>
   <v type="int" name="KPOINT">    -1     0     0     0</v>
   <i type="logical" name="LTCTE"> F  </i>
   <i type="logical" name="LTETE"> F  </i>
   <i type="logical" name="LTRIPLET"> F  </i>
   <i type="logical" name="LFXCEPS"> F  </i>
   <i type="logical" name="LFXHEG"> F  </i>
   <i type="int" name="NATURALO">     2</i>
   <i type="logical" name="L2ORDER"> F  </i>
   <i type="logical" name="LMP2LT"> F  </i>
   <i type="logical" name="LUSEW"> F  </i>
   <i name="ENCUTGW">     -2.00000000</i>
   <i name="ENCUTGWSOFT">     -2.00000000</i>
   <i name="ENCUTLF">     -1.00000000</i>
   <i type="int" name="LMAXMP2">    -1</i>
   <i name="SCISSOR">      0.00000000</i>
   <i type="int" name="NOMEGA">     0</i>
   <i type="int" name="NOMEGAR">     0</i>
   <i type="int" name="NBANDSGW">    -1</i>
   <i type="int" name="NBANDSO">    -1</i>
   <i type="int" name="NBANDSV">    -1</i>
   <i type="int" name="NELM">     1</i>
   <i type="int" name="NELMHF">     1</i>
   <i type="int" name="DIM">     3</i>
   <i type="int" name="ANTIRES">     0</i>
   <i name="OMEGAMAX">    -30.00000000</i>
   <i name="OMEGAMIN">    -30.00000000</i>
   <i name="OMEGATL">   -200.00000000</i>
   <i type="int" name="OMEGAGRID">   140</i>
   <i name="CSHIFT">     -0.10000000</i>
   <i type="logical" name="SELFENERGY"> F  </i>
   <i type="logical" name="LSPECTRAL"> F  </i>
   <i type="logical" name="LSPECTRALGW"> F  </i>
   <i type="logical" name="LSINGLES"> F  </i>
   <i type="logical" name="LFERMIGW"> F  </i>
   <i type="logical" name="ODDONLYGW"> F  </i>
   <i type="logical" name="EVENONLYGW"> F  </i>
   <i type="int" name="NKREDLFX">     1</i>
   <i type="int" name="NKREDLFY">     1</i>
   <i type="int" name="NKREDLFZ">     1</i>
   <i type="int" name="MAXMEM">  2800</i>
   <i type="int" name="TELESCOPE">     0</i>
   <i type="int" name="TAUPAR">     1</i>
   <i type="int" name="OMEGAPAR">    -1</i>
   <i name="LAMBDA">      1.00000000</i>
  </separator>
  <separator name="External order field" >
   <i name="OFIELD_KAPPA">      0.00000000</i>
   <v name="OFIELD_K">      0.00000000      0.00000000      0.00000000</v>
   <i name="OFIELD_Q6_NEAR">      0.00000000</i>
   <i name="OFIELD_Q6_FAR">      0.00000000</i>
   <i name="OFIELD_A">      0.00000000</i>
  </separator>
 </parameters>
 <atominfo>
  <atoms>       4 </atoms>
  <types>       1 </types>
  <array name="atoms" >
   <dimension dim="1">ion</dimension>
   <field type="string">element</field>
   <field type="int">atomtype</field>
   <set>
    <rc><c>Al</c><c>   1</c></rc>
    <rc><c>Al</c><c>   1</c></rc>
    <rc><c>Al</c><c>   1</c></rc>
    <rc><c>Al</c><c>   1</c></rc>
   </set>
  </array>
  <array name="atomtypes" >
   <dimension dim="1">type</dimension>
   <field type="int">atomspertype</field>
   <field type="string">element</field>
   <field>mass</field>
   <field>valence</field>
   <field type="string">pseudopotential</field>
   <set>
    <rc><c>   4</c><c>Al</c><c>     26.98100000</c><c>      3.00000000</c><c>  PAW_PBE Al 04Jan2001                  </c></rc>
   </set>
  </array>
 </atominfo>
 <structure name="initialpos" >
  <crystal>
   <varray name="basis" >
    <v>       4.04000000       0.00000000       0.00000000 </v>
    <v>       0.00000000       4.04000000       0.00000000 </v>
    <v>       0.00000000       0.00000000       4.04000000 </v>
   </varray>
   <i name="volume">     65.93926400 </i>
   <varray name="rec_basis" >
    <v>       0.24752475       0.00000000       0.00000000 </v>
    <v>       0.00000000       0.24752475       0.00000000 </v>
    <v>       0.00000000       0.00000000       0.24752475 </v>
   </varray>
  </crystal>
  <varray name="positions" >
   <v>       0.00000000       0.00000000       0.00000000 </v>
   <v>       0.00000000       0.50000000       0.50000000 </v>
   <v>       0.50000000       0.00000000       0.50000000 </v>
   <v>       0.50000000       0.50000000       0.00000000 </v>
  </varray>
 </structure>
 <calculation>
  <scstep>
   <time name="dav">    0.04    0.23</time>
   <time name="total">    0.48    0.68</time>
   <energy>
    <i name="alphaZ">     -0.81500695 </i>
    <i name="ewald">   -294.15314298 </i>
    <i name="hartreedc">     -0.40422500 </i>
    <i name="XCdc">   -104.95234426 </i>
    <i name="pawpsdc">    264.80062850 </i>
    <i name="pawaedc">   -136.98248303 </i>
    <i name="eentropy">      0.00000000 </i>
    <i name="bandstr">     63.82445161 </i>
    <i name="atom">    214.15364153 </i>
    <i name="e_fr_energy">      5.47151942 </i>
    <i name="e_wo_entrp">      5.47151942 </i>
    <i name="e_0_energy">      5.47151942 </i>
   </energy>
  </scstep>
  <scstep>
   <time name="dav">    0.03    0.03</time>
   <time name="total">    0.03    0.03</time>
   <energy>
    <i name="e_fr_energy">    -13.70493081 </i>
    <i name="e_wo_entrp">    -13.65656608 </i>
    <i name="e_0_energy">    -13.68880924 </i>
   </energy>
  </scstep>
  <scstep>
   <time name="dav">    0.03    0.03</time>
   <time name="total">    0.03    0.03</time>
   <energy>
    <i name="e_fr_energy">    -14.28907574 </i>
    <i name="e_wo_entrp">    -14.13974817 </i>
    <i name="e_0_energy">    -14.23929988 </i>
   </energy>
  </scstep>
  <scstep>
   <time name="dav">    0.05    0.08</time>
   <time name="total">    0.05    0.08</time>
   <energy>
    <i name="e_fr_energy">    -14.29726330 </i>
    <i name="e_wo_entrp">    -14.14791970 </i>
    <i name="e_0_energy">    -14.24748210 </i>
   </energy>
  </scstep>
  <scstep>
   <time name="dav">    0.03    0.03</time>
   <time name="total">    0.14    0.14</time>
   <energy>
    <i name="e_fr_energy">    -14.29726366 </i>
    <i name="e_wo_entrp">    -14.14792006 </i>
    <i name="e_0_energy">    -14.24748246 </i>
   </energy>
  </scstep>
  <scstep>
   <time name="diag">    0.01    0.01</time>
   <time name="diis">    0.03    0.03</time>
   <time name="orth">    0.00    0.00</time>
   <time name="total">    0.58    0.58</time>
   <energy>
    <i name="e_fr_energy">    -14.24786436 </i>
    <i name="e_wo_entrp">    -14.09852076 </i>
    <i name="e_0_energy">    -14.19808316 </i>
   </energy>
  </scstep>
  <scstep>
   <time name="diag">    0.01    0.01</time>
   <time name="diis">    0.03    0.03</time>
   <time name="orth">    0.00    0.00</time>
   <time name="total">    0.57    0.57</time>
   <energy>
    <i name="e_fr_energy">    -14.21195848 </i>
    <i name="e_wo_entrp">    -14.06261488 </i>
    <i name="e_0_energy">    -14.16217728 </i>
   </energy>
  </scstep>
  <scstep>
   <time name="diag">    0.01    0.01</time>
   <time name="diis">    0.03    0.03</time>
   <time name="orth">    0.00    0.00</time>
   <time name="total">    0.58    0.60</time>
   <energy>
    <i name="e_fr_energy">    -14.21188435 </i>
    <i name="e_wo_entrp">    -14.06254076 </i>
    <i name="e_0_energy">    -14.16210315 </i>
   </energy>
  </scstep>
  <scstep>
   <time name="diag">    0.01    0.01</time>
   <time name="diis">    0.03    0.03</time>
   <time name="orth">    0.00    0.00</time>
   <time name="total">    0.57    0.57</time>
   <energy>
    <i name="e_fr_energy">    -14.21188156 </i>
    <i name="e_wo_entrp">    -14.06253796 </i>
    <i name="e_0_energy">    -14.16210036 </i>
   </energy>
  </scstep>
  <scstep>
   <time name="diag">    0.01    0.01</time>
   <time name="diis">    0.03    0.03</time>
   <time name="orth">    0.00    0.00</time>
   <time name="total">    0.57    0.57</time>
   <energy>
    <i name="e_fr_energy">    -14.21187943 </i>
    <i name="e_wo_entrp">    -14.06253583 </i>
    <i name="e_0_energy">    -14.16209823 </i>
   </energy>
  </scstep>
  <scstep>
   <time name="diag">    0.01    0.01</time>
   <time name="diis">    0.02    0.02</time>
   <time name="orth">    0.00    0.00</time>
   <time name="total">    0.57    0.57</time>
   <energy>
    <i name="e_fr_energy">    -14.21187818 </i>
    <i name="e_wo_entrp">    -14.06253458 </i>
    <i name="e_0_energy">    -14.16209698 </i>
   </energy>
  </scstep>
  <scstep>
   <time name="diag">    0.01    0.01</time>
   <time name="diis">    0.02    0.02</time>
   <time name="orth">    0.00    0.00</time>
   <time name="total">    0.56    0.56</time>
   <energy>
    <i name="e_fr_energy">    -14.21187810 </i>
    <i name="e_wo_entrp">    -14.06253451 </i>
    <i name="e_0_energy">    -14.16209690 </i>
   </energy>
  </scstep>
  <scstep>
   <time name="diag">    0.01    0.01</time>
   <time name="diis">    0.02    0.02</time>
   <time name="orth">    0.00    0.00</time>
   <time name="total">    0.55    0.55</time>
   <energy>
    <i name="e_fr_energy">    -14.21187812 </i>
    <i name="e_wo_entrp">    -14.06253452 </i>
    <i name="e_0_energy">    -14.16209692 </i>
   </energy>
  </scstep>
  <scstep>
   <time name="diag">    0.01    0.01</time>
   <time name="diis">    0.01    0.01</time>
   <time name="orth">    0.00    0.00</time>
   <time name="total">    0.45    0.45</time>
   <energy>
    <i name="alphaZ">     -0.81500695 </i>
    <i name="ewald">   -294.15314298 </i>
    <i name="hartreedc">     -0.41209294 </i>
    <i name="XCdc">   -104.52477637 </i>
    <i name="pawpsdc">    556.34084608 </i>
    <i name="pawaedc">   -428.57676138 </i>
    <i name="eentropy">     -0.14934360 </i>
    <i name="bandstr">     43.92475850 </i>
    <i name="atom">    214.15364153 </i>
    <i name="e_fr_energy">    -14.21187812 </i>
    <i name="e_wo_entrp">    -14.06253452 </i>
    <i name="e_0_energy">    -14.16209692 </i>
   </energy>
  </scstep>
  <structure>
   <crystal>
    <varray name="basis" >
     <v>       4.04000000       0.00000000       0.00000000 </v>
     <v>       0.00000000       4.04000000       0.00000000 </v>
     <v>       0.00000000       0.00000000       4.04000000 </v>
    </varray>
    <i name="volume">     65.93926400 </i>
    <varray name="rec_basis" >
     <v>       0.24752475       0.00000000       0.00000000 </v>
     <v>       0.00000000       0.24752475       0.00000000 </v>
     <v>       0.00000000       0.00000000       0.24752475 </v>
    </varray>
   </crystal>
   <varray name="positions" >
    <v>       0.00000000       0.00000000       0.00000000 </v>
    <v>       0.00000000       0.50000000       0.50000000 </v>
    <v>       0.50000000       0.00000000       0.50000000 </v>
    <v>       0.50000000       0.50000000       0.00000000 </v>
   </varray>
  </structure>
  <varray name="forces" >
   <v>       0.00000000       0.00000000      -0.00000000 </v>
   <v>       0.00000000      -0.00000000       0.00000000 </v>
   <v>       0.00000000       0.00000000       0.00000000 </v>
   <v>      -0.00000000      -0.00000000      -0.00000000 </v>
  </varray>
  <varray name="stress" >
   <v>      22.84992950      -0.00000000       0.00000000 </v>
   <v>      -0.00000000      22.84992950       0.00000000 </v>
   <v>      -0.00000000      -0.00000000      22.84992950 </v>
  </varray>
  <energy>
   <i name="e_fr_energy">    -14.21187812 </i>
   <i name="e_wo_entrp">    -14.16209692 </i>
   <i name="e_0_energy">     -0.14934360 </i>
  </energy>
  <time name="totalsc">    8.98    9.24</time>
  <eigenvalues>
   <array>
    <dimension dim="1">band</dimension>
    <dimension dim="2">kpoint</dimension>
    <dimension dim="3">spin</dimension>
    <field>eigene</field>
    <field>occ</field>
    <set>
     <set comment="spin 1">
      <set comment="kpoint 1">
       <r>   -1.4398    1.0000 </r>
       <r>    2.9644    1.0000 </r>
       <r>    2.9644    1.0000 </r>
       <r>    2.9644    1.0000 </r>
       <r>    7.2545    0.6667 </r>
       <r>    7.2545    0.6667 </r>
       <r>    7.2545    0.6667 </r>
       <r>   11.4518   -0.0000 </r>
       <r>   11.6704   -0.0000 </r>
       <r>   11.6704   -0.0000 </r>
      </set>
     </set>
    </set>
   </array>
  </eigenvalues>
  <separator name="orbital magnetization" >
   <v name="MAGDIPOLOUT">      0.00000000      0.00000000      0.00000000</v>
  </separator>
  <dos>
   <i name="efermi">      7.29482275 </i>
   <total>
    <array>
     <dimension dim="1">gridpoints</dimension>
     <dimension dim="2">spin</dimension>
     <field>energy</field>
     <field>total</field>
     <field>integrated</field>
     <set>
      <set comment="spin 1">
       <r>    -3.4398    -0.0000    -0.0000 </r>
       <r>    -1.5387     0.1400     0.2661 </r>
       <r>     0.3624    -0.0000     2.0000 </r>
       <r>     2.2636    -0.0000     2.0000 </r>
       <r>     4.1647     3.1560     8.0000 </r>
       <r>     6.0659    -0.0000     8.0000 </r>
       <r>     7.9670     3.1560    14.0000 </r>
       <r>     9.8681    -0.0000    14.0000 </r>
       <r>    11.7693     2.9010    19.5152 </r>
       <r>    13.6704     0.0000    20.0000 </r>
      </set>
     </set>
    </array>
   </total>
   <partial>
    <array>
     <dimension dim="1">gridpoints</dimension>
     <dimension dim="2">spin</dimension>
     <dimension dim="3">ion</dimension>
     <field>energy</field>
     <field>    s</field>
     <field>   py</field>
     <field>   pz</field>
     <field>   px</field>
     <field>  dxy</field>
     <field>  dyz</field>
     <field>  dz2</field>
     <field>  dxz</field>
     <field>x2-y2</field>
     <set>
      <set comment="ion 1">
       <set comment="spin 1">
        <r>    -3.4398    -0.0000    -0.0000    -0.0000    -0.0000     0.0000     0.0000     0.0000     0.0000     0.0000 </r>
        <r>    -1.5387     0.0083     0.0004     0.0004     0.0004     0.0000     0.0000     0.0000     0.0000     0.0000 </r>
        <r>     0.3624    -0.0000    -0.0000    -0.0000    -0.0000     0.0000     0.0000     0.0000     0.0000     0.0000 </r>
        <r>     2.2636    -0.0000    -0.0000    -0.0000    -0.0000     0.0000     0.0000     0.0000     0.0000     0.0000 </r>
        <r>     4.1647     0.1163     0.0296     0.0296     0.0296     0.0000     0.0000     0.0000     0.0000     0.0000 </r>
        <r>     6.0659    -0.0000    -0.0000    -0.0000    -0.0000     0.0000     0.0000     0.0000     0.0000     0.0000 </r>
        <r>     7.9670     0.0768     0.0389     0.0389     0.0389     0.0000     0.0000     0.0000     0.0000     0.0000 </r>
        <r>     9.8681    -0.0000    -0.0000    -0.0000    -0.0000     0.0000     0.0000     0.0000     0.0000     0.0000 </r>
        <r>    11.7693     0.0549     0.0312     0.0394     0.0383     0.0000     0.0000     0.0000     0.0000     0.0000 </r>
        <r>    13.6704     0.0000     0.0000     0.0000     0.0000     0.0000     0.0000     0.0000     0.0000     0.0000 </r>
       </set>
      </set>
      <set comment="ion 2">
       <set comment="spin 1">
        <r>    -3.4398    -0.0000    -0.0000    -0.0000    -0.0000     0.0000     0.0000     0.0000     0.0000     0.0000 </r>
        <r>    -1.5387     0.0083     0.0004     0.0004     0.0004     0.0000     0.0000     0.0000     0.0000     0.0000 </r>
        <r>     0.3624    -0.0000    -0.0000    -0.0000    -0.0000     0.0000     0.0000     0.0000     0.0000     0.0000 </r>
        <r>     2.2636    -0.0000    -0.0000    -0.0000    -0.0000     0.0000     0.0000     0.0000     0.0000     0.0000 </r>
        <r>     4.1647     0.1163     0.0296     0.0296     0.0296     0.0000     0.0000     0.0000     0.0000     0.0000 </r>
        <r>     6.0659    -0.0000    -0.0000    -0.0000    -0.0000     0.0000     0.0000     0.0000     0.0000     0.0000 </r>
        <r>     7.9670     0.0768     0.0389     0.0389     0.0389     0.0000     0.0000     0.0000     0.0000     0.0000 </r>
        <r>     9.8681    -0.0000    -0.0000    -0.0000    -0.0000     0.0000     0.0000     0.0000     0.0000     0.0000 </r>
        <r>    11.7693     0.0401     0.0286     0.0361     0.0337     0.0000     0.0000     0.0000     0.0000     0.0000 </r>
        <r>    13.6704     0.0000     0.0000     0.0000     0.0000     0.0000     0.0000     0.0000     0.0000     0.0000 </r>
       </set>
      </set>
      <set comment="ion 3">
       <set comment="spin 1">
        <r>    -3.4398    -0.0000    -0.0000    -0.0000    -0.0000     0.0000     0.0000     0.0000     0.0000     0.0000 </r>
        <r>    -1.5387     0.0083     0.0004     0.0004     0.0004     0.0000     0.0000     0.0000     0.0000     0.0000 </r>
        <r>     0.3624    -0.0000    -0.0000    -0.0000    -0.0000     0.0000     0.0000     0.0000     0.0000     0.0000 </r>
        <r>     2.2636    -0.0000    -0.0000    -0.0000    -0.0000     0.0000     0.0000     0.0000     0.0000     0.0000 </r>
        <r>     4.1647     0.1163     0.0296     0.0296     0.0296     0.0000     0.0000     0.0000     0.0000     0.0000 </r>
        <r>     6.0659    -0.0000    -0.0000    -0.0000    -0.0000     0.0000     0.0000     0.0000     0.0000     0.0000 </r>
        <r>     7.9670     0.0768     0.0389     0.0389     0.0389     0.0000     0.0000     0.0000     0.0000     0.0000 </r>
        <r>     9.8681    -0.0000    -0.0000    -0.0000    -0.0000     0.0000     0.0000     0.0000     0.0000     0.0000 </r>
        <r>    11.7693     0.0749     0.0367     0.0461     0.0376     0.0000     0.0000     0.0000     0.0000     0.0000 </r>
        <r>    13.6704     0.0000     0.0000     0.0000     0.0000     0.0000     0.0000     0.0000     0.0000     0.0000 </r>
       </set>
      </set>
      <set comment="ion 4">
       <set comment="spin 1">
        <r>    -3.4398    -0.0000    -0.0000    -0.0000    -0.0000     0.0000     0.0000     0.0000     0.0000     0.0000 </r>
        <r>    -1.5387     0.0083     0.0004     0.0004     0.0004     0.0000     0.0000     0.0000     0.0000     0.0000 </r>
        <r>     0.3624    -0.0000    -0.0000    -0.0000    -0.0000     0.0000     0.0000     0.0000     0.0000     0.0000 </r>
        <r>     2.2636    -0.0000    -0.0000    -0.0000    -0.0000     0.0000     0.0000     0.0000     0.0000     0.0000 </r>
        <r>     4.1647     0.1163     0.0296     0.0296     0.0296     0.0000     0.0000     0.0000     0.0000     0.0000 </r>
        <r>     6.0659    -0.0000    -0.0000    -0.0000    -0.0000     0.0000     0.0000     0.0000     0.0000     0.0000 </r>
        <r>     7.9670     0.0768     0.0389     0.0389     0.0389     0.0000     0.0000     0.0000     0.0000     0.0000 </r>
        <r>     9.8681    -0.0000    -0.0000    -0.0000    -0.0000     0.0000     0.0000     0.0000     0.0000     0.0000 </r>
        <r>    11.7693     0.0712     0.0374     0.0437     0.0364     0.0000     0.0000     0.0000     0.0000     0.0000 </r>
        <r>    13.6704     0.0000     0.0000     0.0000     0.0000     0.0000     0.0000     0.0000     0.0000     0.0000 </r>
       </set>
      </set>
     </set>
    </array>
   </partial>
  </dos>
  <projected>
   <eigenvalues>
    <array>
     <dimension dim="1">band</dimension>
     <dimension dim="2">kpoint</dimension>
     <dimension dim="3">spin</dimension>
     <field>eigene</field>
     <field>occ</field>
     <set>
      <set comment="spin 1">
       <set comment="kpoint 1">
        <r>   -1.4398    1.0000 </r>
        <r>    2.9644    1.0000 </r>
        <r>    2.9644    1.0000 </r>
        <r>    2.9644    1.0000 </r>
        <r>    7.2545    0.6667 </r>
        <r>    7.2545    0.6667 </r>
        <r>    7.2545    0.6667 </r>
        <r>   11.4518   -0.0000 </r>
        <r>   11.6704   -0.0000 </r>
        <r>   11.6704   -0.0000 </r>
       </set>
      </set>
     </set>
    </array>
   </eigenvalues>
   <array>
    <dimension dim="1">ion</dimension>
    <dimension dim="2">band</dimension>
    <dimension dim="3">kpoint</dimension>
    <dimension dim="4">spin</dimension>
    <field>    s</field>
    <field>   py</field>
    <field>   pz</field>
    <field>   px</field>
    <field>  dxy</field>
    <field>  dyz</field>
    <field>  dz2</field>
    <field>  dxz</field>
    <field>x2-y2</field>
    <set>
     <set comment="spin1">
      <set comment="kpoint 1">
       <set comment="band 1">
        <r>  0.0593  0.0028  0.0028  0.0028  0.0000  0.0000  0.0000  0.0000  0.0000 </r>
        <r>  0.0593  0.0028  0.0028  0.0028  0.0000  0.0000  0.0000  0.0000  0.0000 </r>
        <r>  0.0593  0.0028  0.0028  0.0028  0.0000  0.0000  0.0000  0.0000  0.0000 </r>
        <r>  0.0593  0.0028  0.0028  0.0028  0.0000  0.0000  0.0000  0.0000  0.0000 </r>
       </set>
       <set comment="band 2">
        <r>  0.0390  0.0094  0.0025  0.0154  0.0000  0.0000  0.0000  0.0000  0.0000 </r>
        <r>  0.0370  0.0104  0.0018  0.0158  0.0000  0.0000  0.0000  0.0000  0.0000 </r>
        <r>  0.0325  0.0107  0.0027  0.0161  0.0000  0.0000  0.0000  0.0000  0.0000 </r>
        <r>  0.0389  0.0100  0.0026  0.0148  0.0000  0.0000  0.0000  0.0000  0.0000 </r>
       </set>
       <set comment="band 3">
        <r>  0.0343  0.0160  0.0023  0.0106  0.0000  0.0000  0.0000  0.0000  0.0000 </r>
        <r>  0.0390  0.0152  0.0025  0.0097  0.0000  0.0000  0.0000  0.0000  0.0000 </r>
        <r>  0.0390  0.0151  0.0025  0.0098  0.0000  0.0000  0.0000  0.0000  0.0000 </r>
        <r>  0.0352  0.0160  0.0022  0.0106  0.0000  0.0000  0.0000  0.0000  0.0000 </r>
       </set>
       <set comment="band 4">
        <r>  0.0372  0.0027  0.0233  0.0021  0.0000  0.0000  0.0000  0.0000  0.0000 </r>
        <r>  0.0346  0.0025  0.0238  0.0026  0.0000  0.0000  0.0000  0.0000  0.0000 </r>
        <r>  0.0391  0.0023  0.0229  0.0022  0.0000  0.0000  0.0000  0.0000  0.0000 </r>
        <r>  0.0365  0.0021  0.0234  0.0027  0.0000  0.0000  0.0000  0.0000  0.0000 </r>
       </set>
       <set comment="band 5">
        <r>  0.0274  0.0173  0.0004  0.0206  0.0000  0.0000  0.0000  0.0000  0.0000 </r>
        <r>  0.0279  0.0177  0.0003  0.0206  0.0000  0.0000  0.0000  0.0000  0.0000 </r>
        <r>  0.0207  0.0183  0.0013  0.0157  0.0000  0.0000  0.0000  0.0000  0.0000 </r>
        <r>  0.0213  0.0187  0.0013  0.0156  0.0000  0.0000  0.0000  0.0000  0.0000 </r>
       </set>
       <set comment="band 6">
        <r>  0.0383  0.0018  0.0316  0.0099  0.0000  0.0000  0.0000  0.0000  0.0000 </r>
        <r>  0.0065  0.0093  0.0051  0.0146  0.0000  0.0000  0.0000  0.0000  0.0000 </r>
        <r>  0.0073  0.0064  0.0050  0.0179  0.0000  0.0000  0.0000  0.0000  0.0000 </r>
        <r>  0.0452  0.0035  0.0305  0.0123  0.0000  0.0000  0.0000  0.0000  0.0000 </r>
       </set>
       <set comment="band 7">
        <r>  0.0072  0.0179  0.0050  0.0065  0.0000  0.0000  0.0000  0.0000  0.0000 </r>
        <r>  0.0386  0.0100  0.0316  0.0018  0.0000  0.0000  0.0000  0.0000  0.0000 </r>
        <r>  0.0451  0.0123  0.0306  0.0034  0.0000  0.0000  0.0000  0.0000  0.0000 </r>
        <r>  0.0064  0.0147  0.0051  0.0091  0.0000  0.0000  0.0000  0.0000  0.0000 </r>
       </set>
       <set comment="band 8">
        <r>  0.0144  0.0140  0.0139  0.0141  0.0000  0.0000  0.0000  0.0000  0.0000 </r>
        <r>  0.0148  0.0137  0.0137  0.0140  0.0000  0.0000  0.0000  0.0000  0.0000 </r>
        <r>  0.0149  0.0139  0.0137  0.0136  0.0000  0.0000  0.0000  0.0000  0.0000 </r>
        <r>  0.0151  0.0136  0.0137  0.0135  0.0000  0.0000  0.0000  0.0000  0.0000 </r>
       </set>
       <set comment="band 9">
        <r>  0.0135  0.0016  0.0242  0.0038  0.0000  0.0000  0.0000  0.0000  0.0000 </r>
        <r>  0.0064  0.0010  0.0223  0.0018  0.0000  0.0000  0.0000  0.0000  0.0000 </r>
        <r>  0.0415  0.0098  0.0325  0.0054  0.0000  0.0000  0.0000  0.0000  0.0000 </r>
        <r>  0.0358  0.0096  0.0307  0.0037  0.0000  0.0000  0.0000  0.0000  0.0000 </r>
       </set>
       <set comment="band 10">
        <r>  0.0296  0.0160  0.0025  0.0215  0.0000  0.0000  0.0000  0.0000  0.0000 </r>
        <r>  0.0201  0.0142  0.0010  0.0187  0.0000  0.0000  0.0000  0.0000  0.0000 </r>
        <r>  0.0230  0.0141  0.0019  0.0198  0.0000  0.0000  0.0000  0.0000  0.0000 </r>
        <r>  0.0244  0.0154  0.0010  0.0202  0.0000  0.0000  0.0000  0.0000  0.0000 </r>
       </set>
      </set>
     </set>
    </set>
   </array>
  </projected>
 </calculation>
 <structure name="finalpos" >
  <crystal>
   <varray name="basis" >
    <v>       4.04000000       0.00000000       0.00000000 </v>
    <v>       0.00000000       4.04000000       0.00000000 </v>
    <v>       0.00000000       0.00000000       4.04000000 </v>
   </varray>
   <i name="volume">     65.93926400 </i>
   <varray name="rec_basis" >
    <v>       0.24752475       0.00000000       0.00000000 </v>
    <v>       0.00000000       0.24752475       0.00000000 </v>
    <v>       0.00000000       0.00000000       0.24752475 </v>
   </varray>
  </crystal>
  <varray name="positions" >
   <v>       0.00000000       0.00000000       0.00000000 </v>
   <v>       0.00000000       0.50000000       0.50000000 </v>
   <v>       0.50000000       0.00000000       0.50000000 </v>
   <v>       0.50000000       0.50000000       0.00000000 </v>
  </varray>
 </structure>
</modeling>
