<?xml version="1.0" encoding="ISO-8859-1"?>
<modeling>
 <generator>
  <i name="program" type="string">vasp </i>
  <i name="version" type="string">5.4.1  </i>
  <i name="subversion" type="string">24Jun15 (build Oct 31 2015 19:43:09) complex                          parallel </i>
  <i name="platform" type="string">IFC91_ompi </i>
  <i name="date" type="string">2018 03 30 </i>
  <i name="time" type="string">20:01:48 </i>
 </generator>
 <incar>
  <i type="string" name="SYSTEM"> single point</i>
  <i type="int" name="ISTART">     0</i>
  <i type="string" name="PREC">accurate</i>
  <i type="int" name="ISPIN">     1</i>
  <i type="int" name="ICHARG">     2</i>
  <i type="int" name="IBRION">    -1</i>
  <i name="EDIFF">      0.00000001</i>
  <i name="ENCUT">    520.00000000</i>
  <i type="int" name="ISMEAR">     1</i>
  <i name="SIGMA">      0.20000000</i>
  <i type="logical" name="LWAVE"> F  </i>
  <i type="logical" name="LCHARG"> F  </i>
  <v type="int" name="KPOINT_BSE">    -1     0     0     0</v>
 </incar>
 <kpoints>
  <generation param="Monkhorst-Pack">
   <v type="int" name="divisions">      19       19       19 </v>
   <v name="usershift">      0.00000000       0.00000000       0.00000000 </v>
   <v name="genvec1">      0.05263158       0.00000000       0.00000000 </v>
   <v name="genvec2">      0.00000000       0.05263158       0.00000000 </v>
   <v name="genvec3">      0.00000000       0.00000000       0.05263158 </v>
   <v name="shift">      0.00000000       0.00000000       0.00000000 </v>
  </generation>
  <varray name="kpointlist" >
   <v>       0.00000000       0.00000000       0.00000000 </v>
   <v>       0.05263158       0.00000000       0.00000000 </v>
   <v>       0.10526316       0.00000000       0.00000000 </v>
   <v>       0.15789474       0.00000000       0.00000000 </v>
   <v>       0.21052632       0.00000000       0.00000000 </v>
   <v>       0.26315789       0.00000000       0.00000000 </v>
   <v>       0.31578947       0.00000000       0.00000000 </v>
   <v>       0.36842105       0.00000000       0.00000000 </v>
   <v>       0.42105263       0.00000000       0.00000000 </v>
   <v>       0.47368421       0.00000000       0.00000000 </v>
   <v>       0.05263158       0.05263158       0.00000000 </v>
   <v>       0.10526316       0.05263158       0.00000000 </v>
   <v>       0.15789474       0.05263158       0.00000000 </v>
   <v>       0.21052632       0.05263158       0.00000000 </v>
   <v>       0.26315789       0.05263158       0.00000000 </v>
   <v>       0.31578947       0.05263158       0.00000000 </v>
   <v>       0.36842105       0.05263158       0.00000000 </v>
   <v>       0.42105263       0.05263158       0.00000000 </v>
   <v>       0.47368421       0.05263158       0.00000000 </v>
   <v>       0.10526316       0.10526316       0.00000000 </v>
   <v>       0.15789474       0.10526316       0.00000000 </v>
   <v>       0.21052632       0.10526316       0.00000000 </v>
   <v>       0.26315789       0.10526316       0.00000000 </v>
   <v>       0.31578947       0.10526316       0.00000000 </v>
   <v>       0.36842105       0.10526316       0.00000000 </v>
   <v>       0.42105263       0.10526316       0.00000000 </v>
   <v>       0.47368421       0.10526316       0.00000000 </v>
   <v>       0.15789474       0.15789474       0.00000000 </v>
   <v>       0.21052632       0.15789474       0.00000000 </v>
   <v>       0.26315789       0.15789474       0.00000000 </v>
   <v>       0.31578947       0.15789474       0.00000000 </v>
   <v>       0.36842105       0.15789474       0.00000000 </v>
   <v>       0.42105263       0.15789474       0.00000000 </v>
   <v>       0.47368421       0.15789474       0.00000000 </v>
   <v>       0.21052632       0.21052632       0.00000000 </v>
   <v>       0.26315789       0.21052632       0.00000000 </v>
   <v>       0.31578947       0.21052632       0.00000000 </v>
   <v>       0.36842105       0.21052632       0.00000000 </v>
   <v>       0.42105263       0.21052632       0.00000000 </v>
   <v>       0.47368421       0.21052632       0.00000000 </v>
   <v>       0.26315789       0.26315789       0.00000000 </v>
   <v>       0.31578947       0.26315789       0.00000000 </v>
   <v>       0.36842105       0.26315789       0.00000000 </v>
   <v>       0.42105263       0.26315789       0.00000000 </v>
   <v>       0.47368421       0.26315789       0.00000000 </v>
   <v>       0.31578947       0.31578947       0.00000000 </v>
   <v>       0.36842105       0.31578947       0.00000000 </v>
   <v>       0.42105263       0.31578947       0.00000000 </v>
   <v>       0.47368421       0.31578947       0.00000000 </v>
   <v>       0.36842105       0.36842105       0.00000000 </v>
   <v>       0.42105263       0.36842105       0.00000000 </v>
   <v>       0.47368421       0.36842105       0.00000000 </v>
   <v>       0.42105263       0.42105263       0.00000000 </v>
   <v>       0.47368421       0.42105263       0.00000000 </v>
   <v>       0.47368421       0.47368421       0.00000000 </v>
   <v>       0.05263158       0.05263158       0.05263158 </v>
   <v>       0.10526316       0.05263158       0.05263158 </v>
   <v>       0.15789474       0.05263158       0.05263158 </v>
   <v>       0.21052632       0.05263158       0.05263158 </v>
   <v>       0.26315789       0.05263158       0.05263158 </v>
   <v>       0.31578947       0.05263158       0.05263158 </v>
   <v>       0.36842105       0.05263158       0.05263158 </v>
   <v>       0.42105263       0.05263158       0.05263158 </v>
   <v>       0.47368421       0.05263158       0.05263158 </v>
   <v>       0.10526316       0.10526316       0.05263158 </v>
   <v>       0.15789474       0.10526316       0.05263158 </v>
   <v>       0.21052632       0.10526316       0.05263158 </v>
   <v>       0.26315789       0.10526316       0.05263158 </v>
   <v>       0.31578947       0.10526316       0.05263158 </v>
   <v>       0.36842105       0.10526316       0.05263158 </v>
   <v>       0.42105263       0.10526316       0.05263158 </v>
   <v>       0.47368421       0.10526316       0.05263158 </v>
   <v>       0.15789474       0.15789474       0.05263158 </v>
   <v>       0.21052632       0.15789474       0.05263158 </v>
   <v>       0.26315789       0.15789474       0.05263158 </v>
   <v>       0.31578947       0.15789474       0.05263158 </v>
   <v>       0.36842105       0.15789474       0.05263158 </v>
   <v>       0.42105263       0.15789474       0.05263158 </v>
   <v>       0.47368421       0.15789474       0.05263158 </v>
   <v>       0.21052632       0.21052632       0.05263158 </v>
   <v>       0.26315789       0.21052632       0.05263158 </v>
   <v>       0.31578947       0.21052632       0.05263158 </v>
   <v>       0.36842105       0.21052632       0.05263158 </v>
   <v>       0.42105263       0.21052632       0.05263158 </v>
   <v>       0.47368421       0.21052632       0.05263158 </v>
   <v>       0.26315789       0.26315789       0.05263158 </v>
   <v>       0.31578947       0.26315789       0.05263158 </v>
   <v>       0.36842105       0.26315789       0.05263158 </v>
   <v>       0.42105263       0.26315789       0.05263158 </v>
   <v>       0.47368421       0.26315789       0.05263158 </v>
   <v>       0.31578947       0.31578947       0.05263158 </v>
   <v>       0.36842105       0.31578947       0.05263158 </v>
   <v>       0.42105263       0.31578947       0.05263158 </v>
   <v>       0.47368421       0.31578947       0.05263158 </v>
   <v>       0.36842105       0.36842105       0.05263158 </v>
   <v>       0.42105263       0.36842105       0.05263158 </v>
   <v>       0.47368421       0.36842105       0.05263158 </v>
   <v>       0.42105263       0.42105263       0.05263158 </v>
   <v>       0.47368421       0.42105263       0.05263158 </v>
   <v>       0.47368421       0.47368421       0.05263158 </v>
   <v>       0.10526316       0.10526316       0.10526316 </v>
   <v>       0.15789474       0.10526316       0.10526316 </v>
   <v>       0.21052632       0.10526316       0.10526316 </v>
   <v>       0.26315789       0.10526316       0.10526316 </v>
   <v>       0.31578947       0.10526316       0.10526316 </v>
   <v>       0.36842105       0.10526316       0.10526316 </v>
   <v>       0.42105263       0.10526316       0.10526316 </v>
   <v>       0.47368421       0.10526316       0.10526316 </v>
   <v>       0.15789474       0.15789474       0.10526316 </v>
   <v>       0.21052632       0.15789474       0.10526316 </v>
   <v>       0.26315789       0.15789474       0.10526316 </v>
   <v>       0.31578947       0.15789474       0.10526316 </v>
   <v>       0.36842105       0.15789474       0.10526316 </v>
   <v>       0.42105263       0.15789474       0.10526316 </v>
   <v>       0.47368421       0.15789474       0.10526316 </v>
   <v>       0.21052632       0.21052632       0.10526316 </v>
   <v>       0.26315789       0.21052632       0.10526316 </v>
   <v>       0.31578947       0.21052632       0.10526316 </v>
   <v>       0.36842105       0.21052632       0.10526316 </v>
   <v>       0.42105263       0.21052632       0.10526316 </v>
   <v>       0.47368421       0.21052632       0.10526316 </v>
   <v>       0.26315789       0.26315789       0.10526316 </v>
   <v>       0.31578947       0.26315789       0.10526316 </v>
   <v>       0.36842105       0.26315789       0.10526316 </v>
   <v>       0.42105263       0.26315789       0.10526316 </v>
   <v>       0.47368421       0.26315789       0.10526316 </v>
   <v>       0.31578947       0.31578947       0.10526316 </v>
   <v>       0.36842105       0.31578947       0.10526316 </v>
   <v>       0.42105263       0.31578947       0.10526316 </v>
   <v>       0.47368421       0.31578947       0.10526316 </v>
   <v>       0.36842105       0.36842105       0.10526316 </v>
   <v>       0.42105263       0.36842105       0.10526316 </v>
   <v>       0.47368421       0.36842105       0.10526316 </v>
   <v>       0.42105263       0.42105263       0.10526316 </v>
   <v>       0.47368421       0.42105263       0.10526316 </v>
   <v>       0.47368421       0.47368421       0.10526316 </v>
   <v>       0.15789474       0.15789474       0.15789474 </v>
   <v>       0.21052632       0.15789474       0.15789474 </v>
   <v>       0.26315789       0.15789474       0.15789474 </v>
   <v>       0.31578947       0.15789474       0.15789474 </v>
   <v>       0.36842105       0.15789474       0.15789474 </v>
   <v>       0.42105263       0.15789474       0.15789474 </v>
   <v>       0.47368421       0.15789474       0.15789474 </v>
   <v>       0.21052632       0.21052632       0.15789474 </v>
   <v>       0.26315789       0.21052632       0.15789474 </v>
   <v>       0.31578947       0.21052632       0.15789474 </v>
   <v>       0.36842105       0.21052632       0.15789474 </v>
   <v>       0.42105263       0.21052632       0.15789474 </v>
   <v>       0.47368421       0.21052632       0.15789474 </v>
   <v>       0.26315789       0.26315789       0.15789474 </v>
   <v>       0.31578947       0.26315789       0.15789474 </v>
   <v>       0.36842105       0.26315789       0.15789474 </v>
   <v>       0.42105263       0.26315789       0.15789474 </v>
   <v>       0.47368421       0.26315789       0.15789474 </v>
   <v>       0.31578947       0.31578947       0.15789474 </v>
   <v>       0.36842105       0.31578947       0.15789474 </v>
   <v>       0.42105263       0.31578947       0.15789474 </v>
   <v>       0.47368421       0.31578947       0.15789474 </v>
   <v>       0.36842105       0.36842105       0.15789474 </v>
   <v>       0.42105263       0.36842105       0.15789474 </v>
   <v>       0.47368421       0.36842105       0.15789474 </v>
   <v>       0.42105263       0.42105263       0.15789474 </v>
   <v>       0.47368421       0.42105263       0.15789474 </v>
   <v>       0.47368421       0.47368421       0.15789474 </v>
   <v>       0.21052632       0.21052632       0.21052632 </v>
   <v>       0.26315789       0.21052632       0.21052632 </v>
   <v>       0.31578947       0.21052632       0.21052632 </v>
   <v>       0.36842105       0.21052632       0.21052632 </v>
   <v>       0.42105263       0.21052632       0.21052632 </v>
   <v>       0.47368421       0.21052632       0.21052632 </v>
   <v>       0.26315789       0.26315789       0.21052632 </v>
   <v>       0.31578947       0.26315789       0.21052632 </v>
   <v>       0.36842105       0.26315789       0.21052632 </v>
   <v>       0.42105263       0.26315789       0.21052632 </v>
   <v>       0.47368421       0.26315789       0.21052632 </v>
   <v>       0.31578947       0.31578947       0.21052632 </v>
   <v>       0.36842105       0.31578947       0.21052632 </v>
   <v>       0.42105263       0.31578947       0.21052632 </v>
   <v>       0.47368421       0.31578947       0.21052632 </v>
   <v>       0.36842105       0.36842105       0.21052632 </v>
   <v>       0.42105263       0.36842105       0.21052632 </v>
   <v>       0.47368421       0.36842105       0.21052632 </v>
   <v>       0.42105263       0.42105263       0.21052632 </v>
   <v>       0.47368421       0.42105263       0.21052632 </v>
   <v>       0.47368421       0.47368421       0.21052632 </v>
   <v>       0.26315789       0.26315789       0.26315789 </v>
   <v>       0.31578947       0.26315789       0.26315789 </v>
   <v>       0.36842105       0.26315789       0.26315789 </v>
   <v>       0.42105263       0.26315789       0.26315789 </v>
   <v>       0.47368421       0.26315789       0.26315789 </v>
   <v>       0.31578947       0.31578947       0.26315789 </v>
   <v>       0.36842105       0.31578947       0.26315789 </v>
   <v>       0.42105263       0.31578947       0.26315789 </v>
   <v>       0.47368421       0.31578947       0.26315789 </v>
   <v>       0.36842105       0.36842105       0.26315789 </v>
   <v>       0.42105263       0.36842105       0.26315789 </v>
   <v>       0.47368421       0.36842105       0.26315789 </v>
   <v>       0.42105263       0.42105263       0.26315789 </v>
   <v>       0.47368421       0.42105263       0.26315789 </v>
   <v>       0.47368421       0.47368421       0.26315789 </v>
   <v>       0.31578947       0.31578947       0.31578947 </v>
   <v>       0.36842105       0.31578947       0.31578947 </v>
   <v>       0.42105263       0.31578947       0.31578947 </v>
   <v>       0.47368421       0.31578947       0.31578947 </v>
   <v>       0.36842105       0.36842105       0.31578947 </v>
   <v>       0.42105263       0.36842105       0.31578947 </v>
   <v>       0.47368421       0.36842105       0.31578947 </v>
   <v>       0.42105263       0.42105263       0.31578947 </v>
   <v>       0.47368421       0.42105263       0.31578947 </v>
   <v>       0.47368421       0.47368421       0.31578947 </v>
   <v>       0.36842105       0.36842105       0.36842105 </v>
   <v>       0.42105263       0.36842105       0.36842105 </v>
   <v>       0.47368421       0.36842105       0.36842105 </v>
   <v>       0.42105263       0.42105263       0.36842105 </v>
   <v>       0.47368421       0.42105263       0.36842105 </v>
   <v>       0.47368421       0.47368421       0.36842105 </v>
   <v>       0.42105263       0.42105263       0.42105263 </v>
   <v>       0.47368421       0.42105263       0.42105263 </v>
   <v>       0.47368421       0.47368421       0.42105263 </v>
   <v>       0.47368421       0.47368421       0.47368421 </v>
  </varray>
  <varray name="weights" >
   <v>       0.00014579 </v>
   <v>       0.00087476 </v>
   <v>       0.00087476 </v>
   <v>       0.00087476 </v>
   <v>       0.00087476 </v>
   <v>       0.00087476 </v>
   <v>       0.00087476 </v>
   <v>       0.00087476 </v>
   <v>       0.00087476 </v>
   <v>       0.00087476 </v>
   <v>       0.00174953 </v>
   <v>       0.00349905 </v>
   <v>       0.00349905 </v>
   <v>       0.00349905 </v>
   <v>       0.00349905 </v>
   <v>       0.00349905 </v>
   <v>       0.00349905 </v>
   <v>       0.00349905 </v>
   <v>       0.00349905 </v>
   <v>       0.00174953 </v>
   <v>       0.00349905 </v>
   <v>       0.00349905 </v>
   <v>       0.00349905 </v>
   <v>       0.00349905 </v>
   <v>       0.00349905 </v>
   <v>       0.00349905 </v>
   <v>       0.00349905 </v>
   <v>       0.00174953 </v>
   <v>       0.00349905 </v>
   <v>       0.00349905 </v>
   <v>       0.00349905 </v>
   <v>       0.00349905 </v>
   <v>       0.00349905 </v>
   <v>       0.00349905 </v>
   <v>       0.00174953 </v>
   <v>       0.00349905 </v>
   <v>       0.00349905 </v>
   <v>       0.00349905 </v>
   <v>       0.00349905 </v>
   <v>       0.00349905 </v>
   <v>       0.00174953 </v>
   <v>       0.00349905 </v>
   <v>       0.00349905 </v>
   <v>       0.00349905 </v>
   <v>       0.00349905 </v>
   <v>       0.00174953 </v>
   <v>       0.00349905 </v>
   <v>       0.00349905 </v>
   <v>       0.00349905 </v>
   <v>       0.00174953 </v>
   <v>       0.00349905 </v>
   <v>       0.00349905 </v>
   <v>       0.00174953 </v>
   <v>       0.00349905 </v>
   <v>       0.00174953 </v>
   <v>       0.00116635 </v>
   <v>       0.00349905 </v>
   <v>       0.00349905 </v>
   <v>       0.00349905 </v>
   <v>       0.00349905 </v>
   <v>       0.00349905 </v>
   <v>       0.00349905 </v>
   <v>       0.00349905 </v>
   <v>       0.00349905 </v>
   <v>       0.00349905 </v>
   <v>       0.00699810 </v>
   <v>       0.00699810 </v>
   <v>       0.00699810 </v>
   <v>       0.00699810 </v>
   <v>       0.00699810 </v>
   <v>       0.00699810 </v>
   <v>       0.00699810 </v>
   <v>       0.00349905 </v>
   <v>       0.00699810 </v>
   <v>       0.00699810 </v>
   <v>       0.00699810 </v>
   <v>       0.00699810 </v>
   <v>       0.00699810 </v>
   <v>       0.00699810 </v>
   <v>       0.00349905 </v>
   <v>       0.00699810 </v>
   <v>       0.00699810 </v>
   <v>       0.00699810 </v>
   <v>       0.00699810 </v>
   <v>       0.00699810 </v>
   <v>       0.00349905 </v>
   <v>       0.00699810 </v>
   <v>       0.00699810 </v>
   <v>       0.00699810 </v>
   <v>       0.00699810 </v>
   <v>       0.00349905 </v>
   <v>       0.00699810 </v>
   <v>       0.00699810 </v>
   <v>       0.00699810 </v>
   <v>       0.00349905 </v>
   <v>       0.00699810 </v>
   <v>       0.00699810 </v>
   <v>       0.00349905 </v>
   <v>       0.00699810 </v>
   <v>       0.00349905 </v>
   <v>       0.00116635 </v>
   <v>       0.00349905 </v>
   <v>       0.00349905 </v>
   <v>       0.00349905 </v>
   <v>       0.00349905 </v>
   <v>       0.00349905 </v>
   <v>       0.00349905 </v>
   <v>       0.00349905 </v>
   <v>       0.00349905 </v>
   <v>       0.00699810 </v>
   <v>       0.00699810 </v>
   <v>       0.00699810 </v>
   <v>       0.00699810 </v>
   <v>       0.00699810 </v>
   <v>       0.00699810 </v>
   <v>       0.00349905 </v>
   <v>       0.00699810 </v>
   <v>       0.00699810 </v>
   <v>       0.00699810 </v>
   <v>       0.00699810 </v>
   <v>       0.00699810 </v>
   <v>       0.00349905 </v>
   <v>       0.00699810 </v>
   <v>       0.00699810 </v>
   <v>       0.00699810 </v>
   <v>       0.00699810 </v>
   <v>       0.00349905 </v>
   <v>       0.00699810 </v>
   <v>       0.00699810 </v>
   <v>       0.00699810 </v>
   <v>       0.00349905 </v>
   <v>       0.00699810 </v>
   <v>       0.00699810 </v>
   <v>       0.00349905 </v>
   <v>       0.00699810 </v>
   <v>       0.00349905 </v>
   <v>       0.00116635 </v>
   <v>       0.00349905 </v>
   <v>       0.00349905 </v>
   <v>       0.00349905 </v>
   <v>       0.00349905 </v>
   <v>       0.00349905 </v>
   <v>       0.00349905 </v>
   <v>       0.00349905 </v>
   <v>       0.00699810 </v>
   <v>       0.00699810 </v>
   <v>       0.00699810 </v>
   <v>       0.00699810 </v>
   <v>       0.00699810 </v>
   <v>       0.00349905 </v>
   <v>       0.00699810 </v>
   <v>       0.00699810 </v>
   <v>       0.00699810 </v>
   <v>       0.00699810 </v>
   <v>       0.00349905 </v>
   <v>       0.00699810 </v>
   <v>       0.00699810 </v>
   <v>       0.00699810 </v>
   <v>       0.00349905 </v>
   <v>       0.00699810 </v>
   <v>       0.00699810 </v>
   <v>       0.00349905 </v>
   <v>       0.00699810 </v>
   <v>       0.00349905 </v>
   <v>       0.00116635 </v>
   <v>       0.00349905 </v>
   <v>       0.00349905 </v>
   <v>       0.00349905 </v>
   <v>       0.00349905 </v>
   <v>       0.00349905 </v>
   <v>       0.00349905 </v>
   <v>       0.00699810 </v>
   <v>       0.00699810 </v>
   <v>       0.00699810 </v>
   <v>       0.00699810 </v>
   <v>       0.00349905 </v>
   <v>       0.00699810 </v>
   <v>       0.00699810 </v>
   <v>       0.00699810 </v>
   <v>       0.00349905 </v>
   <v>       0.00699810 </v>
   <v>       0.00699810 </v>
   <v>       0.00349905 </v>
   <v>       0.00699810 </v>
   <v>       0.00349905 </v>
   <v>       0.00116635 </v>
   <v>       0.00349905 </v>
   <v>       0.00349905 </v>
   <v>       0.00349905 </v>
   <v>       0.00349905 </v>
   <v>       0.00349905 </v>
   <v>       0.00699810 </v>
   <v>       0.00699810 </v>
   <v>       0.00699810 </v>
   <v>       0.00349905 </v>
   <v>       0.00699810 </v>
   <v>       0.00699810 </v>
   <v>       0.00349905 </v>
   <v>       0.00699810 </v>
   <v>       0.00349905 </v>
   <v>       0.00116635 </v>
   <v>       0.00349905 </v>
   <v>       0.00349905 </v>
   <v>       0.00349905 </v>
   <v>       0.00349905 </v>
   <v>       0.00699810 </v>
   <v>       0.00699810 </v>
   <v>       0.00349905 </v>
   <v>       0.00699810 </v>
   <v>       0.00349905 </v>
   <v>       0.00116635 </v>
   <v>       0.00349905 </v>
   <v>       0.00349905 </v>
   <v>       0.00349905 </v>
   <v>       0.00699810 </v>
   <v>       0.00349905 </v>
   <v>       0.00116635 </v>
   <v>       0.00349905 </v>
   <v>       0.00349905 </v>
   <v>       0.00116635 </v>
  </varray>
 </kpoints>
 <parameters>
  <separator name="general" >
   <i type="string" name="SYSTEM">single point</i>
   <i type="logical" name="LCOMPAT"> F  </i>
  </separator>
  <separator name="electronic" >
   <i type="string" name="PREC">accura</i>
   <i name="ENMAX">    520.00000000</i>
   <i name="ENAUG">    586.98000000</i>
   <i name="EDIFF">      0.00000001</i>
   <i type="int" name="IALGO">    38</i>
   <i type="int" name="IWAVPR">    10</i>
   <i type="int" name="NBANDS">    26</i>
   <i name="NELECT">     44.00000000</i>
   <i type="int" name="TURBO">     0</i>
   <i type="int" name="IRESTART">     0</i>
   <i type="int" name="NREBOOT">     0</i>
   <i type="int" name="NMIN">     0</i>
   <i name="EREF">      0.00000000</i>
   <separator name="electronic smearing" >
    <i type="int" name="ISMEAR">     1</i>
    <i name="SIGMA">      0.20000000</i>
    <i name="KSPACING">      0.50000000</i>
    <i type="logical" name="KGAMMA"> T  </i>
   </separator>
   <separator name="electronic projectors" >
    <i type="logical" name="LREAL"> F  </i>
    <v name="ROPT">      0.00000000</v>
    <i type="int" name="LMAXPAW">  -100</i>
    <i type="int" name="LMAXMIX">     2</i>
    <i type="logical" name="NLSPLINE"> F  </i>
   </separator>
   <separator name="electronic startup" >
    <i type="int" name="ISTART">     0</i>
    <i type="int" name="ICHARG">     2</i>
    <i type="int" name="INIWAV">     1</i>
   </separator>
   <separator name="electronic spin" >
    <i type="int" name="ISPIN">     1</i>
    <i type="logical" name="LNONCOLLINEAR"> F  </i>
    <v name="MAGMOM">      1.00000000      1.00000000      1.00000000      1.00000000</v>
    <i name="NUPDOWN">     -1.00000000</i>
    <i type="logical" name="LSORBIT"> F  </i>
    <v name="SAXIS">      0.00000000      0.00000000      1.00000000</v>
    <i type="logical" name="LSPIRAL"> F  </i>
    <v name="QSPIRAL">      0.00000000      0.00000000      0.00000000</v>
    <i type="logical" name="LZEROZ"> F  </i>
   </separator>
   <separator name="electronic exchange-correlation" >
    <i type="logical" name="LASPH"> F  </i>
    <i type="logical" name="LMETAGGA"> F  </i>
   </separator>
   <separator name="electronic convergence" >
    <i type="int" name="NELM">    60</i>
    <i type="int" name="NELMDL">    -5</i>
    <i type="int" name="NELMIN">     2</i>
    <i name="ENINI">    520.00000000</i>
    <separator name="electronic convergence detail" >
     <i type="logical" name="LDIAG"> T  </i>
     <i type="logical" name="LSUBROT"> F  </i>
     <i name="WEIMIN">      0.00000000</i>
     <i name="EBREAK">      0.00000000</i>
     <i name="DEPER">      0.30000000</i>
     <i type="int" name="NRMM">     4</i>
     <i name="TIME">      0.40000000</i>
    </separator>
   </separator>
   <separator name="electronic mixer" >
    <i name="AMIX">      0.40000000</i>
    <i name="BMIX">      1.00000000</i>
    <i name="AMIN">      0.10000000</i>
    <i name="AMIX_MAG">      1.60000000</i>
    <i name="BMIX_MAG">      1.00000000</i>
    <separator name="electronic mixer details" >
     <i type="int" name="IMIX">     4</i>
     <i type="logical" name="MIXFIRST"> F  </i>
     <i type="int" name="MAXMIX">   -45</i>
     <i name="WC">    100.00000000</i>
     <i type="int" name="INIMIX">     1</i>
     <i type="int" name="MIXPRE">     1</i>
     <i type="int" name="MREMOVE">     5</i>
    </separator>
   </separator>
   <separator name="electronic dipolcorrection" >
    <i type="logical" name="LDIPOL"> F  </i>
    <i type="logical" name="LMONO"> F  </i>
    <i type="int" name="IDIPOL">     0</i>
    <i name="EPSILON">      1.00000000</i>
    <v name="DIPOL">   -100.00000000   -100.00000000   -100.00000000</v>
    <i name="EFIELD">      0.00000000</i>
   </separator>
  </separator>
  <separator name="grids" >
   <i type="int" name="NGX">    28</i>
   <i type="int" name="NGY">    28</i>
   <i type="int" name="NGZ">    28</i>
   <i type="int" name="NGXF">    56</i>
   <i type="int" name="NGYF">    56</i>
   <i type="int" name="NGZF">    56</i>
   <i type="logical" name="ADDGRID"> F  </i>
  </separator>
  <separator name="ionic" >
   <i type="int" name="NSW">     0</i>
   <i type="int" name="IBRION">    -1</i>
   <i type="int" name="ISIF">     2</i>
   <i name="PSTRESS">      0.00000000</i>
   <i name="EDIFFG">      0.00000010</i>
   <i type="int" name="NFREE">     0</i>
   <i name="POTIM">      0.50000000</i>
   <i name="SMASS">     -3.00000000</i>
   <i name="SCALEE">      1.00000000</i>
  </separator>
  <separator name="ionic md" >
   <i name="TEBEG">      0.00010000</i>
   <i name="TEEND">      0.00010000</i>
   <i type="int" name="NBLOCK">     1</i>
   <i type="int" name="KBLOCK">     1</i>
   <i type="int" name="NPACO">   256</i>
   <i name="APACO">     16.00000000</i>
  </separator>
  <separator name="symmetry" >
   <i type="int" name="ISYM">     2</i>
   <i name="SYMPREC">      0.00001000</i>
  </separator>
  <separator name="dos" >
   <i type="logical" name="LORBIT"> F  </i>
   <v name="RWIGS">     -1.00000000</v>
   <i type="int" name="NEDOS">   301</i>
   <i name="EMIN">     10.00000000</i>
   <i name="EMAX">    -10.00000000</i>
   <i name="EFERMI">      0.00000000</i>
  </separator>
  <separator name="writing" >
   <i type="int" name="NWRITE">     2</i>
   <i type="logical" name="LWAVE"> F  </i>
   <i type="logical" name="LCHARG"> F  </i>
   <i type="logical" name="LPARD"> F  </i>
   <i type="logical" name="LVTOT"> F  </i>
   <i type="logical" name="LVHAR"> F  </i>
   <i type="logical" name="LELF"> F  </i>
   <i type="logical" name="LOPTICS"> F  </i>
   <v name="STM">      0.00000000      0.00000000      0.00000000      0.00000000      0.00000000      0.00000000      0.00000000</v>
  </separator>
  <separator name="performance" >
   <i type="int" name="NPAR">     1</i>
   <i type="int" name="NSIM">     4</i>
   <i type="int" name="NBLK">    -1</i>
   <i type="logical" name="LPLANE"> T  </i>
   <i type="logical" name="LSCALAPACK"> T  </i>
   <i type="logical" name="LSCAAWARE"> F  </i>
   <i type="logical" name="LSCALU"> F  </i>
   <i type="logical" name="LASYNC"> F  </i>
   <i type="logical" name="LORBITALREAL"> F  </i>
  </separator>
  <separator name="miscellaneous" >
   <i type="int" name="IDIOT">     3</i>
   <i type="logical" name="LMUSIC"> F  </i>
   <v name="POMASS">     63.54600000</v>
   <v name="DARWINR">      0.00000000</v>
   <v name="DARWINV">      1.00000000</v>
   <i type="logical" name="LCORR"> T  </i>
  </separator>
  <i type="logical" name="GGA_COMPAT"> T  </i>
  <i type="logical" name="LBERRY"> F  </i>
  <i type="int" name="ICORELEVEL">     0</i>
  <i type="logical" name="LDAU"> F  </i>
  <i type="int" name="I_CONSTRAINED_M">     0</i>
  <separator name="electronic exchange-correlation" >
   <i type="string" name="GGA">--</i>
   <i type="int" name="VOSKOWN">     0</i>
   <i type="logical" name="LHFCALC"> F  </i>
   <i type="string" name="PRECFOCK"></i>
   <i type="logical" name="LSYMGRAD"> F  </i>
   <i type="logical" name="LHFONE"> F  </i>
   <i type="logical" name="LRHFCALC"> F  </i>
   <i type="logical" name="LTHOMAS"> F  </i>
   <i type="logical" name="LMODELHF"> F  </i>
   <i name="ENCUT4O">     -1.00000000</i>
   <i type="int" name="EXXOEP">     0</i>
   <i type="int" name="FOURORBIT">     0</i>
   <i name="AEXX">      0.00000000</i>
   <i name="HFALPHA">      0.00000000</i>
   <i name="MCALPHA">      0.00000000</i>
   <i name="ALDAX">      1.00000000</i>
   <i name="AGGAX">      1.00000000</i>
   <i name="ALDAC">      1.00000000</i>
   <i name="AGGAC">      1.00000000</i>
   <i type="int" name="NKREDX">     1</i>
   <i type="int" name="NKREDY">     1</i>
   <i type="int" name="NKREDZ">     1</i>
   <i type="logical" name="SHIFTRED"> F  </i>
   <i type="logical" name="ODDONLY"> F  </i>
   <i type="logical" name="EVENONLY"> F  </i>
   <i type="int" name="LMAXFOCK">     0</i>
   <i type="int" name="NMAXFOCKAE">     0</i>
   <i type="logical" name="LFOCKAEDFT"> F  </i>
   <i name="HFSCREEN">      0.00000000</i>
   <i name="HFSCREENC">      0.00000000</i>
   <i type="int" name="NBANDSGWLOW">     0</i>
  </separator>
  <separator name="vdW DFT" >
   <i type="logical" name="LUSE_VDW"> F  </i>
   <i name="Zab_VDW">     -0.84910000</i>
   <i name="PARAM1">      0.12340000</i>
   <i name="PARAM2">      1.00000000</i>
   <i name="PARAM3">      0.00000000</i>
  </separator>
  <separator name="model GW" >
   <i type="int" name="MODEL_GW">     0</i>
   <i name="MODEL_EPS0">      7.21578134</i>
   <i name="MODEL_ALPHA">      1.00000000</i>
  </separator>
  <separator name="linear response parameters" >
   <i type="logical" name="LEPSILON"> F  </i>
   <i type="logical" name="LRPA"> F  </i>
   <i type="logical" name="LNABLA"> F  </i>
   <i type="logical" name="LVEL"> F  </i>
   <i type="int" name="KINTER">     0</i>
   <i name="CSHIFT">      0.10000000</i>
   <i name="OMEGAMAX">     -1.00000000</i>
   <i name="DEG_THRESHOLD">      0.00200000</i>
  </separator>
  <separator name="orbital magnetization" >
   <i type="logical" name="NUCIND"> F  </i>
   <v name="MAGPOS">      0.00000000      0.00000000      0.00000000</v>
   <i type="logical" name="LNICSALL"> T  </i>
   <i type="logical" name="ORBITALMAG"> F  </i>
   <i type="logical" name="LMAGBLOCH"> F  </i>
   <i type="logical" name="LCHIMAG"> F  </i>
   <i type="logical" name="LGAUGE"> T  </i>
   <i type="int" name="MAGATOM">     0</i>
   <v name="MAGDIPOL">      0.00000000      0.00000000      0.00000000</v>
   <v name="AVECCONST">      0.00000000      0.00000000      0.00000000</v>
  </separator>
  <separator name="response functions" >
   <i type="logical" name="LADDER"> F  </i>
   <i type="logical" name="LFXC"> F  </i>
   <i type="logical" name="LHARTREE"> T  </i>
   <i type="int" name="IBSE">     0</i>
   <v type="int" name="KPOINT">    -1     0     0     0</v>
   <i type="logical" name="LTCTE"> F  </i>
   <i type="logical" name="LTETE"> F  </i>
   <i type="logical" name="LTRIPLET"> F  </i>
   <i type="logical" name="LFXCEPS"> F  </i>
   <i type="logical" name="LFXHEG"> F  </i>
   <i type="int" name="NATURALO">     0</i>
   <i type="logical" name="L2ORDER"> F  </i>
   <i type="logical" name="LUSEW"> F  </i>
   <i name="ENCUTGW">     -2.00000000</i>
   <i name="ENCUTGWSOFT">     -2.00000000</i>
   <i name="ENCUTLF">     -1.00000000</i>
   <i type="int" name="LMAXMP2">    -1</i>
   <i name="SCISSOR">      0.00000000</i>
   <i type="int" name="NOMEGA">     0</i>
   <i type="int" name="NOMEGAR">     0</i>
   <i type="int" name="NBANDSGW">    -1</i>
   <i type="int" name="NBANDSO">    -1</i>
   <i type="int" name="NBANDSV">    -1</i>
   <i type="int" name="NELM">     1</i>
   <i type="int" name="NELMHF">     1</i>
   <i type="int" name="DIM">     3</i>
   <i type="int" name="ANTIRES">     0</i>
   <i name="OMEGAMAX">    -30.00000000</i>
   <i name="OMEGAMIN">    -30.00000000</i>
   <i name="OMEGATL">   -200.00000000</i>
   <i type="int" name="OMEGAGRID">     0</i>
   <i name="CSHIFT">     -0.10000000</i>
   <i type="logical" name="SELFENERGY"> F  </i>
   <i type="logical" name="LSPECTRAL"> F  </i>
   <i type="logical" name="LSPECTRALGW"> F  </i>
   <i type="logical" name="LSINGLES"> F  </i>
   <i type="logical" name="LFERMIGW"> F  </i>
   <i type="logical" name="ODDONLYGW"> F  </i>
   <i type="logical" name="EVENONLYGW"> F  </i>
   <i type="int" name="NKREDLFX">     1</i>
   <i type="int" name="NKREDLFY">     1</i>
   <i type="int" name="NKREDLFZ">     1</i>
   <i type="int" name="MAXMEM">  1800</i>
   <i type="int" name="TELESCOPE">     0</i>
   <i type="int" name="TAUPAR">     1</i>
   <i type="int" name="OMEGAPAR">    -1</i>
   <i name="LAMBDA">      1.00000000</i>
  </separator>
  <separator name="External order field" >
   <i name="OFIELD_KAPPA">      0.00000000</i>
   <v name="OFIELD_K">      0.00000000      0.00000000      0.00000000</v>
   <i name="OFIELD_Q6_NEAR">      0.00000000</i>
   <i name="OFIELD_Q6_FAR">      0.00000000</i>
   <i name="OFIELD_A">      0.00000000</i>
  </separator>
  <separator name="solvation model" >
   <i type="logical" name="LSOL"> F  </i>
  </separator>
 </parameters>
 <atominfo>
  <atoms>       4 </atoms>
  <types>       1 </types>
  <array name="atoms" >
   <dimension dim="1">ion</dimension>
   <field type="string">element</field>
   <field type="int">atomtype</field>
   <set>
    <rc><c>Cu</c><c>   1</c></rc>
    <rc><c>Cu</c><c>   1</c></rc>
    <rc><c>Cu</c><c>   1</c></rc>
    <rc><c>Cu</c><c>   1</c></rc>
   </set>
  </array>
  <array name="atomtypes" >
   <dimension dim="1">type</dimension>
   <field type="int">atomspertype</field>
   <field type="string">element</field>
   <field>mass</field>
   <field>valence</field>
   <field type="string">pseudopotential</field>
   <set>
    <rc><c>   4</c><c>Cu</c><c>     63.54600000</c><c>     11.00000000</c><c>  PAW_PBE Cu 22Jun2005                  </c></rc>
   </set>
  </array>
 </atominfo>
 <structure name="initialpos" >
  <crystal>
   <varray name="basis" >
    <v>       3.63689449       0.00000000       0.00000000 </v>
    <v>       0.00000000       3.63689449       0.00000000 </v>
    <v>       0.00000000       0.00000000       3.63689449 </v>
   </varray>
   <i name="volume">     48.10520895 </i>
   <varray name="rec_basis" >
    <v>       0.27495986       0.00000000       0.00000000 </v>
    <v>       0.00000000       0.27495986       0.00000000 </v>
    <v>       0.00000000       0.00000000       0.27495986 </v>
   </varray>
  </crystal>
  <varray name="positions" >
   <v>       0.00000000       0.00000000       0.00000000 </v>
   <v>       0.00000000       0.50000000       0.50000000 </v>
   <v>       0.50000000       0.00000000       0.50000000 </v>
   <v>       0.50000000       0.50000000       0.00000000 </v>
  </varray>
 </structure>
 <calculation>
  <scstep>
   <time name="dav">    3.05    3.08</time>
   <time name="total">    3.08    3.12</time>
   <energy>
    <i name="alphaZ">    243.24285971 </i>
    <i name="ewald">  -4393.05881088 </i>
    <i name="hartreedc">  -1461.91974132 </i>
    <i name="XCdc">    182.93965287 </i>
    <i name="pawpsdc">   4912.82663951 </i>
    <i name="pawaedc">  -5336.19386850 </i>
    <i name="eentropy">      0.00211678 </i>
    <i name="bandstr">    621.84180814 </i>
    <i name="atom">   5563.90821598 </i>
    <i name="e_fr_energy">    333.58887229 </i>
    <i name="e_wo_entrp">    333.58675551 </i>
    <i name="e_0_energy">    333.58816670 </i>
   </energy>
  </scstep>
  <scstep>
   <time name="dav">    2.96    2.98</time>
   <time name="total">    2.99    3.00</time>
   <energy>
    <i name="e_fr_energy">      8.07407832 </i>
    <i name="e_wo_entrp">      8.07483895 </i>
    <i name="e_0_energy">      8.07433186 </i>
   </energy>
  </scstep>
  <scstep>
   <time name="dav">    3.08    3.09</time>
   <time name="total">    3.10    3.11</time>
   <energy>
    <i name="e_fr_energy">    -17.91811633 </i>
    <i name="e_wo_entrp">    -17.91792148 </i>
    <i name="e_0_energy">    -17.91805138 </i>
   </energy>
  </scstep>
  <scstep>
   <time name="dav">    3.19    3.20</time>
   <time name="total">    3.22    3.23</time>
   <energy>
    <i name="e_fr_energy">    -18.48403700 </i>
    <i name="e_wo_entrp">    -18.48386355 </i>
    <i name="e_0_energy">    -18.48397918 </i>
   </energy>
  </scstep>
  <scstep>
   <time name="dav">    3.58    3.60</time>
   <time name="total">    3.88    3.90</time>
   <energy>
    <i name="e_fr_energy">    -18.49161255 </i>
    <i name="e_wo_entrp">    -18.49144047 </i>
    <i name="e_0_energy">    -18.49155519 </i>
   </energy>
  </scstep>
  <scstep>
   <time name="dav">    3.04    3.04</time>
   <time name="total">    3.34    3.34</time>
   <energy>
    <i name="e_fr_energy">    -16.36386702 </i>
    <i name="e_wo_entrp">    -16.36184269 </i>
    <i name="e_0_energy">    -16.36319224 </i>
   </energy>
  </scstep>
  <scstep>
   <time name="dav">    3.11    3.12</time>
   <time name="total">    3.40    3.41</time>
   <energy>
    <i name="e_fr_energy">    -14.94618302 </i>
    <i name="e_wo_entrp">    -14.94597428 </i>
    <i name="e_0_energy">    -14.94611344 </i>
   </energy>
  </scstep>
  <scstep>
   <time name="dav">    4.01    4.53</time>
   <time name="total">    4.30    4.83</time>
   <energy>
    <i name="e_fr_energy">    -14.92335139 </i>
    <i name="e_wo_entrp">    -14.92322354 </i>
    <i name="e_0_energy">    -14.92330877 </i>
   </energy>
  </scstep>
  <scstep>
   <time name="dav">    3.11    3.11</time>
   <time name="total">    3.40    3.41</time>
   <energy>
    <i name="e_fr_energy">    -14.91036079 </i>
    <i name="e_wo_entrp">    -14.91001992 </i>
    <i name="e_0_energy">    -14.91024717 </i>
   </energy>
  </scstep>
  <scstep>
   <time name="dav">    3.43    3.43</time>
   <time name="total">    3.72    3.73</time>
   <energy>
    <i name="e_fr_energy">    -14.91052902 </i>
    <i name="e_wo_entrp">    -14.91019677 </i>
    <i name="e_0_energy">    -14.91041827 </i>
   </energy>
  </scstep>
  <scstep>
   <time name="dav">    3.41    3.41</time>
   <time name="total">    3.70    3.71</time>
   <energy>
    <i name="e_fr_energy">    -14.91052749 </i>
    <i name="e_wo_entrp">    -14.91019289 </i>
    <i name="e_0_energy">    -14.91041596 </i>
   </energy>
  </scstep>
  <scstep>
   <time name="dav">    3.60    3.61</time>
   <time name="total">    3.90    3.90</time>
   <energy>
    <i name="e_fr_energy">    -14.91053109 </i>
    <i name="e_wo_entrp">    -14.91019593 </i>
    <i name="e_0_energy">    -14.91041937 </i>
   </energy>
  </scstep>
  <scstep>
   <time name="dav">    2.99    3.00</time>
   <time name="total">    3.29    3.29</time>
   <energy>
    <i name="e_fr_energy">    -14.91053147 </i>
    <i name="e_wo_entrp">    -14.91019643 </i>
    <i name="e_0_energy">    -14.91041979 </i>
   </energy>
  </scstep>
  <scstep>
   <time name="dav">    2.03    2.04</time>
   <time name="total">    2.33    2.33</time>
   <energy>
    <i name="e_fr_energy">    -14.91053140 </i>
    <i name="e_wo_entrp">    -14.91019636 </i>
    <i name="e_0_energy">    -14.91041972 </i>
   </energy>
  </scstep>
  <scstep>
   <time name="dav">    2.38    2.41</time>
   <time name="total">    2.68    2.71</time>
   <energy>
    <i name="e_fr_energy">    -14.91053139 </i>
    <i name="e_wo_entrp">    -14.91019636 </i>
    <i name="e_0_energy">    -14.91041971 </i>
   </energy>
  </scstep>
  <scstep>
   <time name="dav">    2.00    2.00</time>
   <time name="total">    2.03    2.03</time>
   <energy>
    <i name="alphaZ">    243.24285971 </i>
    <i name="ewald">  -4393.05881088 </i>
    <i name="hartreedc">  -1369.15947731 </i>
    <i name="XCdc">    178.54900123 </i>
    <i name="pawpsdc">   5242.52044806 </i>
    <i name="pawaedc">  -5673.64540946 </i>
    <i name="eentropy">     -0.00033503 </i>
    <i name="bandstr">    192.73297632 </i>
    <i name="atom">   5563.90821598 </i>
    <i name="e_fr_energy">    -14.91053138 </i>
    <i name="e_wo_entrp">    -14.91019635 </i>
    <i name="e_0_energy">    -14.91041970 </i>
   </energy>
  </scstep>
  <structure>
   <crystal>
    <varray name="basis" >
     <v>       3.63689449       0.00000000       0.00000000 </v>
     <v>       0.00000000       3.63689449       0.00000000 </v>
     <v>       0.00000000       0.00000000       3.63689449 </v>
    </varray>
    <i name="volume">     48.10520895 </i>
    <varray name="rec_basis" >
     <v>       0.27495986       0.00000000       0.00000000 </v>
     <v>       0.00000000       0.27495986       0.00000000 </v>
     <v>       0.00000000       0.00000000       0.27495986 </v>
    </varray>
   </crystal>
   <varray name="positions" >
    <v>       0.00000000       0.00000000       0.00000000 </v>
    <v>       0.00000000       0.50000000       0.50000000 </v>
    <v>       0.50000000       0.00000000       0.50000000 </v>
    <v>       0.50000000       0.50000000       0.00000000 </v>
   </varray>
  </structure>
  <varray name="forces" >
   <v>       0.00000000      -0.00000000       0.00000000 </v>
   <v>      -0.00000000      -0.00000000       0.00000000 </v>
   <v>       0.00000000       0.00000000      -0.00000000 </v>
   <v>       0.00000000       0.00000000       0.00000000 </v>
  </varray>
  <varray name="stress" >
   <v>      -2.94934330       0.00000000      -0.00000000 </v>
   <v>      -0.00000000      -2.94934330       0.00000000 </v>
   <v>       0.00000000      -0.00000000      -2.94934330 </v>
  </varray>
  <energy>
   <i name="e_fr_energy">    -14.91053138 </i>
   <i name="e_wo_entrp">    -14.91041970 </i>
   <i name="e_0_energy">     -0.00033503 </i>
  </energy>
  <time name="totalsc">   54.60   55.81</time>
  <eigenvalues>
   <array>
    <dimension dim="1">band</dimension>
    <dimension dim="2">kpoint</dimension>
    <dimension dim="3">spin</dimension>
    <field>eigene</field>
    <field>occ</field>
    <set>
     <set comment="spin 1">
      <set comment="kpoint 1">
       <r>   -1.8511    1.0000 </r>
       <r>    2.5906    1.0000 </r>
       <r>    2.5906    1.0000 </r>
       <r>    2.5906    1.0000 </r>
       <r>    3.0343    1.0000 </r>
       <r>    3.0343    1.0000 </r>
       <r>    3.0343    1.0000 </r>
       <r>    4.3884    1.0000 </r>
       <r>    4.3884    1.0000 </r>
       <r>    4.3884    1.0000 </r>
       <r>    5.1927    1.0000 </r>
       <r>    5.1927    1.0000 </r>
       <r>    5.7276    1.0000 </r>
       <r>    5.7276    1.0000 </r>
       <r>    5.7276    1.0000 </r>
       <r>    5.8788    1.0000 </r>
       <r>    5.8788    1.0000 </r>
       <r>    5.8788    1.0000 </r>
       <r>    5.8788    1.0000 </r>
       <r>    5.8788    1.0000 </r>
       <r>    5.8788    1.0000 </r>
       <r>    8.8747   -0.0000 </r>
       <r>    8.8747   -0.0000 </r>
       <r>    8.8747   -0.0000 </r>
       <r>   14.3521    0.0000 </r>
       <r>   14.3521    0.0000 </r>
      </set>
      <set comment="kpoint 2">
       <r>   -1.8178    1.0000 </r>
       <r>    2.5903    1.0000 </r>
       <r>    2.6060    1.0000 </r>
       <r>    2.6060    1.0000 </r>
       <r>    3.0430    1.0000 </r>
       <r>    3.0435    1.0000 </r>
       <r>    3.0435    1.0000 </r>
       <r>    4.3786    1.0000 </r>
       <r>    4.3961    1.0000 </r>
       <r>    4.3961    1.0000 </r>
       <r>    5.1838    1.0000 </r>
       <r>    5.1963    1.0000 </r>
       <r>    5.7162    1.0000 </r>
       <r>    5.7162    1.0000 </r>
       <r>    5.7239    1.0000 </r>
       <r>    5.8191    1.0000 </r>
       <r>    5.8191    1.0000 </r>
       <r>    5.8652    1.0000 </r>
       <r>    5.8652    1.0000 </r>
       <r>    5.8788    1.0000 </r>
       <r>    5.8788    1.0000 </r>
       <r>    8.6529   -0.0000 </r>
       <r>    8.9642   -0.0000 </r>
       <r>    8.9642   -0.0000 </r>
       <r>   14.3644    0.0000 </r>
       <r>   14.3644    0.0000 </r>
      </set>
      <set comment="kpoint 3">
       <r>   -1.7182    1.0000 </r>
       <r>    2.5871    1.0000 </r>
       <r>    2.6516    1.0000 </r>
       <r>    2.6516    1.0000 </r>
       <r>    3.0691    1.0000 </r>
       <r>    3.0712    1.0000 </r>
       <r>    3.0712    1.0000 </r>
       <r>    4.3496    1.0000 </r>
       <r>    4.4194    1.0000 </r>
       <r>    4.4194    1.0000 </r>
       <r>    5.1577    1.0000 </r>
       <r>    5.2069    1.0000 </r>
       <r>    5.6587    1.0000 </r>
       <r>    5.6587    1.0000 </r>
       <r>    5.6823    1.0000 </r>
       <r>    5.6823    1.0000 </r>
       <r>    5.7128    1.0000 </r>
       <r>    5.8253    1.0000 </r>
       <r>    5.8253    1.0000 </r>
       <r>    5.8789    1.0000 </r>
       <r>    5.8789    1.0000 </r>
       <r>    8.0979   -0.0000 </r>
       <r>    9.2142   -0.0000 </r>
       <r>    9.2142   -0.0000 </r>
       <r>   14.4017    0.0000 </r>
       <r>   14.4017    0.0000 </r>
      </set>
      <set comment="kpoint 4">
       <r>   -1.5531    1.0000 </r>
       <r>    2.5729    1.0000 </r>
       <r>    2.7248    1.0000 </r>
       <r>    2.7248    1.0000 </r>
       <r>    3.1118    1.0000 </r>
       <r>    3.1175    1.0000 </r>
       <r>    3.1175    1.0000 </r>
       <r>    4.3024    1.0000 </r>
       <r>    4.4579    1.0000 </r>
       <r>    4.4579    1.0000 </r>
       <r>    5.1155    1.0000 </r>
       <r>    5.2242    1.0000 </r>
       <r>    5.4356    1.0000 </r>
       <r>    5.4356    1.0000 </r>
       <r>    5.6272    1.0000 </r>
       <r>    5.6272    1.0000 </r>
       <r>    5.6946    1.0000 </r>
       <r>    5.7613    1.0000 </r>
       <r>    5.7613    1.0000 </r>
       <r>    5.8790    1.0000 </r>
       <r>    5.8790    1.0000 </r>
       <r>    7.3947    0.4723 </r>
       <r>    9.5863   -0.0000 </r>
       <r>    9.5863   -0.0000 </r>
       <r>   14.4654    0.0000 </r>
       <r>   14.4654    0.0000 </r>
      </set>
      <set comment="kpoint 5">
       <r>   -1.3240    1.0000 </r>
       <r>    2.5324    1.0000 </r>
       <r>    2.8209    1.0000 </r>
       <r>    2.8209    1.0000 </r>
       <r>    3.1701    1.0000 </r>
       <r>    3.1828    1.0000 </r>
       <r>    3.1828    1.0000 </r>
       <r>    4.2384    1.0000 </r>
       <r>    4.5112    1.0000 </r>
       <r>    4.5112    1.0000 </r>
       <r>    5.0593    1.0000 </r>
       <r>    5.1833    1.0000 </r>
       <r>    5.1833    1.0000 </r>
       <r>    5.2479    1.0000 </r>
       <r>    5.5535    1.0000 </r>
       <r>    5.5535    1.0000 </r>
       <r>    5.6700    1.0000 </r>
       <r>    5.6765    1.0000 </r>
       <r>    5.6765    1.0000 </r>
       <r>    5.8791    1.0000 </r>
       <r>    5.8791    1.0000 </r>
       <r>    6.6711    1.0000 </r>
       <r>   10.0466   -0.0000 </r>
       <r>   10.0466   -0.0000 </r>
       <r>   14.5579    0.0000 </r>
       <r>   14.5579    0.0000 </r>
      </set>
      <set comment="kpoint 6">
       <r>   -1.0334    1.0000 </r>
       <r>    2.4405    1.0000 </r>
       <r>    2.9333    1.0000 </r>
       <r>    2.9333    1.0000 </r>
       <r>    3.2428    1.0000 </r>
       <r>    3.2674    1.0000 </r>
       <r>    3.2674    1.0000 </r>
       <r>    4.1595    1.0000 </r>
       <r>    4.5789    1.0000 </r>
       <r>    4.5789    1.0000 </r>
       <r>    4.9234    1.0000 </r>
       <r>    4.9234    1.0000 </r>
       <r>    4.9924    1.0000 </r>
       <r>    5.2773    1.0000 </r>
       <r>    5.4655    1.0000 </r>
       <r>    5.4655    1.0000 </r>
       <r>    5.5750    1.0000 </r>
       <r>    5.5750    1.0000 </r>
       <r>    5.6395    1.0000 </r>
       <r>    5.8792    1.0000 </r>
       <r>    5.8792    1.0000 </r>
       <r>    6.0078    1.0000 </r>
       <r>   10.5730   -0.0000 </r>
       <r>   10.5730   -0.0000 </r>
       <r>   14.6821    0.0000 </r>
       <r>   14.6821    0.0000 </r>
      </set>
      <set comment="kpoint 7">
       <r>   -0.6847    1.0000 </r>
       <r>    2.2643    1.0000 </r>
       <r>    3.0522    1.0000 </r>
       <r>    3.0522    1.0000 </r>
       <r>    3.3281    1.0000 </r>
       <r>    3.3718    1.0000 </r>
       <r>    3.3718    1.0000 </r>
       <r>    4.0683    1.0000 </r>
       <r>    4.6600    1.0000 </r>
       <r>    4.6600    1.0000 </r>
       <r>    4.6686    1.0000 </r>
       <r>    4.6686    1.0000 </r>
       <r>    4.9196    1.0000 </r>
       <r>    5.3117    1.0000 </r>
       <r>    5.3700    1.0000 </r>
       <r>    5.3700    1.0000 </r>
       <r>    5.4614    1.0000 </r>
       <r>    5.4614    1.0000 </r>
       <r>    5.4650    1.0000 </r>
       <r>    5.6042    1.0000 </r>
       <r>    5.8793    1.0000 </r>
       <r>    5.8793    1.0000 </r>
       <r>   11.1520   -0.0000 </r>
       <r>   11.1520   -0.0000 </r>
       <r>   14.8415    0.0000 </r>
       <r>   14.8415    0.0000 </r>
      </set>
      <set comment="kpoint 8">
       <r>   -0.2834    1.0000 </r>
       <r>    1.9774    1.0000 </r>
       <r>    3.1649    1.0000 </r>
       <r>    3.1649    1.0000 </r>
       <r>    3.4238    1.0000 </r>
       <r>    3.4964    1.0000 </r>
       <r>    3.4964    1.0000 </r>
       <r>    3.9674    1.0000 </r>
       <r>    4.4263    1.0000 </r>
       <r>    4.4263    1.0000 </r>
       <r>    4.7535    1.0000 </r>
       <r>    4.7535    1.0000 </r>
       <r>    4.8477    1.0000 </r>
       <r>    5.0819    1.0000 </r>
       <r>    5.2776    1.0000 </r>
       <r>    5.2776    1.0000 </r>
       <r>    5.3402    1.0000 </r>
       <r>    5.3402    1.0000 </r>
       <r>    5.3501    1.0000 </r>
       <r>    5.5649    1.0000 </r>
       <r>    5.8794    1.0000 </r>
       <r>    5.8794    1.0000 </r>
       <r>   11.7754   -0.0000 </r>
       <r>   11.7754   -0.0000 </r>
       <r>   15.0393    0.0000 </r>
       <r>   15.0393    0.0000 </r>
      </set>
      <set comment="kpoint 9">
       <r>    0.1620    1.0000 </r>
       <r>    1.5848    1.0000 </r>
       <r>    3.2552    1.0000 </r>
       <r>    3.2552    1.0000 </r>
       <r>    3.5276    1.0000 </r>
       <r>    3.6415    1.0000 </r>
       <r>    3.6415    1.0000 </r>
       <r>    3.8598    1.0000 </r>
       <r>    4.2006    1.0000 </r>
       <r>    4.2006    1.0000 </r>
       <r>    4.7865    1.0000 </r>
       <r>    4.8579    1.0000 </r>
       <r>    4.8579    1.0000 </r>
       <r>    4.8598    1.0000 </r>
       <r>    5.2021    1.0000 </r>
       <r>    5.2021    1.0000 </r>
       <r>    5.2156    1.0000 </r>
       <r>    5.2156    1.0000 </r>
       <r>    5.3915    1.0000 </r>
       <r>    5.5228    1.0000 </r>
       <r>    5.8795    1.0000 </r>
       <r>    5.8795    1.0000 </r>
       <r>   12.4379   -0.0000 </r>
       <r>   12.4379   -0.0000 </r>
       <r>   14.6277    0.0000 </r>
       <r>   14.6277    0.0000 </r>
      </set>
      <set comment="kpoint 10">
       <r>    0.6383    1.0000 </r>
       <r>    1.1237    1.0000 </r>
       <r>    3.3063    1.0000 </r>
       <r>    3.3063    1.0000 </r>
       <r>    3.6368    1.0000 </r>
       <r>    3.7486    1.0000 </r>
       <r>    3.8073    1.0000 </r>
       <r>    3.8073    1.0000 </r>
       <r>    3.9939    1.0000 </r>
       <r>    3.9939    1.0000 </r>
       <r>    4.7510    1.0000 </r>
       <r>    4.7640    1.0000 </r>
       <r>    4.9714    1.0000 </r>
       <r>    4.9714    1.0000 </r>
       <r>    5.0916    1.0000 </r>
       <r>    5.0916    1.0000 </r>
       <r>    5.1588    1.0000 </r>
       <r>    5.1588    1.0000 </r>
       <r>    5.4349    1.0000 </r>
       <r>    5.4791    1.0000 </r>
       <r>    5.8795    1.0000 </r>
       <r>    5.8795    1.0000 </r>
       <r>   13.1360    0.0000 </r>
       <r>   13.1360    0.0000 </r>
       <r>   13.8668    0.0000 </r>
       <r>   13.8668    0.0000 </r>
      </set>
      <set comment="kpoint 11">
       <r>   -1.7846    1.0000 </r>
       <r>    2.6059    1.0000 </r>
       <r>    2.6059    1.0000 </r>
       <r>    2.6214    1.0000 </r>
       <r>    3.0522    1.0000 </r>
       <r>    3.0522    1.0000 </r>
       <r>    3.0526    1.0000 </r>
       <r>    4.3730    1.0000 </r>
       <r>    4.3999    1.0000 </r>
       <r>    4.4036    1.0000 </r>
       <r>    5.1813    1.0000 </r>
       <r>    5.1938    1.0000 </r>
       <r>    5.7049    1.0000 </r>
       <r>    5.7100    1.0000 </r>
       <r>    5.7100    1.0000 </r>
       <r>    5.7711    1.0000 </r>
       <r>    5.8067    1.0000 </r>
       <r>    5.8067    1.0000 </r>
       <r>    5.8652    1.0000 </r>
       <r>    5.8652    1.0000 </r>
       <r>    5.8702    1.0000 </r>
       <r>    8.7417   -0.0000 </r>
       <r>    8.7417   -0.0000 </r>
       <r>    9.0508   -0.0000 </r>
       <r>   14.3767    0.0000 </r>
       <r>   14.6539    0.0000 </r>
      </set>
      <set comment="kpoint 12">
       <r>   -1.6851    1.0000 </r>
       <r>    2.6031    1.0000 </r>
       <r>    2.6520    1.0000 </r>
       <r>    2.6665    1.0000 </r>
       <r>    3.0780    1.0000 </r>
       <r>    3.0796    1.0000 </r>
       <r>    3.0799    1.0000 </r>
       <r>    4.3464    1.0000 </r>
       <r>    4.4209    1.0000 </r>
       <r>    4.4259    1.0000 </r>
       <r>    5.1579    1.0000 </r>
       <r>    5.2026    1.0000 </r>
       <r>    5.6226    1.0000 </r>
       <r>    5.6249    1.0000 </r>
       <r>    5.6716    1.0000 </r>
       <r>    5.6888    1.0000 </r>
       <r>    5.6948    1.0000 </r>
       <r>    5.7723    1.0000 </r>
       <r>    5.8253    1.0000 </r>
       <r>    5.8653    1.0000 </r>
       <r>    5.8655    1.0000 </r>
       <r>    8.1875   -0.0000 </r>
       <r>    8.9879   -0.0000 </r>
       <r>    9.2937   -0.0000 </r>
       <r>   14.4141    0.0000 </r>
       <r>   14.6975    0.0000 </r>
      </set>
      <set comment="kpoint 13">
       <r>   -1.5203    1.0000 </r>
       <r>    2.5898    1.0000 </r>
       <r>    2.7259    1.0000 </r>
       <r>    2.7390    1.0000 </r>
       <r>    3.1203    1.0000 </r>
       <r>    3.1255    1.0000 </r>
       <r>    3.1256    1.0000 </r>
       <r>    4.3002    1.0000 </r>
       <r>    4.4588    1.0000 </r>
       <r>    4.4627    1.0000 </r>
       <r>    5.1168    1.0000 </r>
       <r>    5.2205    1.0000 </r>
       <r>    5.4081    1.0000 </r>
       <r>    5.4088    1.0000 </r>
       <r>    5.6175    1.0000 </r>
       <r>    5.6319    1.0000 </r>
       <r>    5.6413    1.0000 </r>
       <r>    5.7280    1.0000 </r>
       <r>    5.7612    1.0000 </r>
       <r>    5.8643    1.0000 </r>
       <r>    5.8653    1.0000 </r>
       <r>    7.4909    0.1223 </r>
       <r>    9.3508   -0.0000 </r>
       <r>    9.6578   -0.0000 </r>
       <r>   14.4779    0.0000 </r>
       <r>   14.7722    0.0000 </r>
      </set>
      <set comment="kpoint 14">
       <r>   -1.2916    1.0000 </r>
       <r>    2.5504    1.0000 </r>
       <r>    2.8231    1.0000 </r>
       <r>    2.8342    1.0000 </r>
       <r>    3.1783    1.0000 </r>
       <r>    3.1898    1.0000 </r>
       <r>    3.1904    1.0000 </r>
       <r>    4.2370    1.0000 </r>
       <r>    4.5119    1.0000 </r>
       <r>    4.5134    1.0000 </r>
       <r>    5.0622    1.0000 </r>
       <r>    5.1566    1.0000 </r>
       <r>    5.1640    1.0000 </r>
       <r>    5.2453    1.0000 </r>
       <r>    5.5449    1.0000 </r>
       <r>    5.5528    1.0000 </r>
       <r>    5.5573    1.0000 </r>
       <r>    5.6764    1.0000 </r>
       <r>    5.6866    1.0000 </r>
       <r>    5.8640    1.0000 </r>
       <r>    5.8653    1.0000 </r>
       <r>    6.7856    1.0001 </r>
       <r>    9.7955   -0.0000 </r>
       <r>   10.1112   -0.0000 </r>
       <r>   14.5699    0.0000 </r>
       <r>   14.8805    0.0000 </r>
      </set>
      <set comment="kpoint 15">
       <r>   -1.0015    1.0000 </r>
       <r>    2.4600    1.0000 </r>
       <r>    2.9367    1.0000 </r>
       <r>    2.9457    1.0000 </r>
       <r>    3.2504    1.0000 </r>
       <r>    3.2728    1.0000 </r>
       <r>    3.2744    1.0000 </r>
       <r>    4.1590    1.0000 </r>
       <r>    4.5766    1.0000 </r>
       <r>    4.5794    1.0000 </r>
       <r>    4.8978    1.0000 </r>
       <r>    4.9100    1.0000 </r>
       <r>    4.9982    1.0000 </r>
       <r>    5.2763    1.0000 </r>
       <r>    5.4162    1.0000 </r>
       <r>    5.4583    1.0000 </r>
       <r>    5.4691    1.0000 </r>
       <r>    5.5748    1.0000 </r>
       <r>    5.6441    1.0000 </r>
       <r>    5.8640    1.0000 </r>
       <r>    5.8653    1.0000 </r>
       <r>    6.1683    1.0000 </r>
       <r>   10.2996   -0.0000 </r>
       <r>   10.6320   -0.0000 </r>
       <r>   14.6918    0.0000 </r>
       <r>   15.0259    0.0000 </r>
      </set>
      <set comment="kpoint 16">
       <r>   -0.6535    1.0000 </r>
       <r>    2.2854    1.0000 </r>
       <r>    3.0573    1.0000 </r>
       <r>    3.0642    1.0000 </r>
       <r>    3.3349    1.0000 </r>
       <r>    3.3746    1.0000 </r>
       <r>    3.3779    1.0000 </r>
       <r>    4.0686    1.0000 </r>
       <r>    4.6449    1.0000 </r>
       <r>    4.6486    1.0000 </r>
       <r>    4.6599    1.0000 </r>
       <r>    4.6603    1.0000 </r>
       <r>    4.9327    1.0000 </r>
       <r>    5.2108    1.0000 </r>
       <r>    5.3125    1.0000 </r>
       <r>    5.3643    1.0000 </r>
       <r>    5.3736    1.0000 </r>
       <r>    5.4612    1.0000 </r>
       <r>    5.5811    1.0000 </r>
       <r>    5.7439    1.0000 </r>
       <r>    5.8642    1.0000 </r>
       <r>    5.8653    1.0000 </r>
       <r>   10.8494   -0.0000 </r>
       <r>   11.2065   -0.0000 </r>
       <r>   14.8378    0.0000 </r>
       <r>   15.2126    0.0000 </r>
      </set>
      <set comment="kpoint 17">
       <r>   -0.2531    1.0000 </r>
       <r>    2.0003    1.0000 </r>
       <r>    3.1719    1.0000 </r>
       <r>    3.1770    1.0000 </r>
       <r>    3.4299    1.0000 </r>
       <r>    3.4954    1.0000 </r>
       <r>    3.5014    1.0000 </r>
       <r>    3.9687    1.0000 </r>
       <r>    4.4050    1.0000 </r>
       <r>    4.4213    1.0000 </r>
       <r>    4.7145    1.0000 </r>
       <r>    4.7537    1.0000 </r>
       <r>    4.8864    1.0000 </r>
       <r>    4.9680    1.0000 </r>
       <r>    5.2734    1.0000 </r>
       <r>    5.2808    1.0000 </r>
       <r>    5.3400    1.0000 </r>
       <r>    5.3531    1.0000 </r>
       <r>    5.4260    1.0000 </r>
       <r>    5.5973    1.0000 </r>
       <r>    5.8644    1.0000 </r>
       <r>    5.8652    1.0000 </r>
       <r>   11.4366   -0.0000 </r>
       <r>   11.8263   -0.0000 </r>
       <r>   14.7464    0.0000 </r>
       <r>   15.1400    0.0000 </r>
      </set>
      <set comment="kpoint 18">
       <r>    0.1912    1.0000 </r>
       <r>    1.6094    1.0000 </r>
       <r>    3.2644    1.0000 </r>
       <r>    3.2678    1.0000 </r>
       <r>    3.5328    1.0000 </r>
       <r>    3.6357    1.0000 </r>
       <r>    3.6453    1.0000 </r>
       <r>    3.8621    1.0000 </r>
       <r>    4.1822    1.0000 </r>
       <r>    4.1985    1.0000 </r>
       <r>    4.7274    1.0000 </r>
       <r>    4.7945    1.0000 </r>
       <r>    4.8580    1.0000 </r>
       <r>    4.9143    1.0000 </r>
       <r>    5.1995    1.0000 </r>
       <r>    5.2045    1.0000 </r>
       <r>    5.2154    1.0000 </r>
       <r>    5.2668    1.0000 </r>
       <r>    5.3970    1.0000 </r>
       <r>    5.5407    1.0000 </r>
       <r>    5.8646    1.0000 </r>
       <r>    5.8651    1.0000 </r>
       <r>   12.0555   -0.0000 </r>
       <r>   12.4860   -0.0000 </r>
       <r>   14.0689    0.0000 </r>
       <r>   14.6705    0.0000 </r>
      </set>
      <set comment="kpoint 19">
       <r>    0.6662    1.0000 </r>
       <r>    1.1501    1.0000 </r>
       <r>    3.3174    1.0000 </r>
       <r>    3.3187    1.0000 </r>
       <r>    3.6411    1.0000 </r>
       <r>    3.7518    1.0000 </r>
       <r>    3.7966    1.0000 </r>
       <r>    3.8096    1.0000 </r>
       <r>    3.9790    1.0000 </r>
       <r>    3.9942    1.0000 </r>
       <r>    4.7073    1.0000 </r>
       <r>    4.7168    1.0000 </r>
       <r>    4.9714    1.0000 </r>
       <r>    5.0097    1.0000 </r>
       <r>    5.0915    1.0000 </r>
       <r>    5.1300    1.0000 </r>
       <r>    5.1581    1.0000 </r>
       <r>    5.1598    1.0000 </r>
       <r>    5.4433    1.0000 </r>
       <r>    5.4913    1.0000 </r>
       <r>    5.8648    1.0000 </r>
       <r>    5.8650    1.0000 </r>
       <r>   12.7025   -0.0000 </r>
       <r>   13.1818    0.0000 </r>
       <r>   13.3750    0.0000 </r>
       <r>   13.9109    0.0000 </r>
      </set>
      <set comment="kpoint 20">
       <r>   -1.5862    1.0000 </r>
       <r>    2.6506    1.0000 </r>
       <r>    2.6506    1.0000 </r>
       <r>    2.7104    1.0000 </r>
       <r>    3.1048    1.0000 </r>
       <r>    3.1048    1.0000 </r>
       <r>    3.1060    1.0000 </r>
       <r>    4.3287    1.0000 </r>
       <r>    4.4339    1.0000 </r>
       <r>    4.4453    1.0000 </r>
       <r>    5.1486    1.0000 </r>
       <r>    5.2002    1.0000 </r>
       <r>    5.5077    1.0000 </r>
       <r>    5.5582    1.0000 </r>
       <r>    5.5582    1.0000 </r>
       <r>    5.6400    1.0000 </r>
       <r>    5.6979    1.0000 </r>
       <r>    5.6979    1.0000 </r>
       <r>    5.8252    1.0000 </r>
       <r>    5.8252    1.0000 </r>
       <r>    5.8444    1.0000 </r>
       <r>    8.4305   -0.0000 </r>
       <r>    8.4305   -0.0000 </r>
       <r>    9.5195   -0.0000 </r>
       <r>   14.4518    0.0000 </r>
       <r>   15.4664    0.0000 </r>
      </set>
      <set comment="kpoint 21">
       <r>   -1.4222    1.0000 </r>
       <r>    2.6395    1.0000 </r>
       <r>    2.7267    1.0000 </r>
       <r>    2.7807    1.0000 </r>
       <r>    3.1462    1.0000 </r>
       <r>    3.1497    1.0000 </r>
       <r>    3.1498    1.0000 </r>
       <r>    4.2891    1.0000 </r>
       <r>    4.4663    1.0000 </r>
       <r>    4.4771    1.0000 </r>
       <r>    5.1159    1.0000 </r>
       <r>    5.2148    1.0000 </r>
       <r>    5.3253    1.0000 </r>
       <r>    5.3343    1.0000 </r>
       <r>    5.4627    1.0000 </r>
       <r>    5.5885    1.0000 </r>
       <r>    5.6371    1.0000 </r>
       <r>    5.6858    1.0000 </r>
       <r>    5.7610    1.0000 </r>
       <r>    5.8250    1.0000 </r>
       <r>    5.8319    1.0000 </r>
       <r>    7.7407   -0.0159 </r>
       <r>    8.7794   -0.0000 </r>
       <r>    9.8638   -0.0000 </r>
       <r>   14.5151    0.0000 </r>
       <r>   15.5602    0.0000 </r>
      </set>
      <set comment="kpoint 22">
       <r>   -1.1948    1.0000 </r>
       <r>    2.6035    1.0000 </r>
       <r>    2.8271    1.0000 </r>
       <r>    2.8733    1.0000 </r>
       <r>    3.2027    1.0000 </r>
       <r>    3.2110    1.0000 </r>
       <r>    3.2131    1.0000 </r>
       <r>    4.2302    1.0000 </r>
       <r>    4.5166    1.0000 </r>
       <r>    4.5201    1.0000 </r>
       <r>    5.0670    1.0000 </r>
       <r>    5.0821    1.0000 </r>
       <r>    5.1046    1.0000 </r>
       <r>    5.2417    1.0000 </r>
       <r>    5.3342    1.0000 </r>
       <r>    5.5194    1.0000 </r>
       <r>    5.5630    1.0000 </r>
       <r>    5.6595    1.0000 </r>
       <r>    5.6759    1.0000 </r>
       <r>    5.8248    1.0000 </r>
       <r>    5.8260    1.0000 </r>
       <r>    7.0545    1.0199 </r>
       <r>    9.1977   -0.0000 </r>
       <r>   10.2990   -0.0000 </r>
       <r>   14.6032    0.0000 </r>
       <r>   15.6950    0.0000 </r>
      </set>
      <set comment="kpoint 23">
       <r>   -0.9063    1.0000 </r>
       <r>    2.5174    1.0000 </r>
       <r>    2.9449    1.0000 </r>
       <r>    2.9822    1.0000 </r>
       <r>    3.2730    1.0000 </r>
       <r>    3.2893    1.0000 </r>
       <r>    3.2951    1.0000 </r>
       <r>    4.1558    1.0000 </r>
       <r>    4.5711    1.0000 </r>
       <r>    4.5825    1.0000 </r>
       <r>    4.8262    1.0000 </r>
       <r>    4.8691    1.0000 </r>
       <r>    5.0108    1.0000 </r>
       <r>    5.1675    1.0000 </r>
       <r>    5.2770    1.0000 </r>
       <r>    5.4366    1.0000 </r>
       <r>    5.4756    1.0000 </r>
       <r>    5.5743    1.0000 </r>
       <r>    5.6181    1.0000 </r>
       <r>    5.8233    1.0000 </r>
       <r>    5.8245    1.0000 </r>
       <r>    6.4620    1.0000 </r>
       <r>    9.6646   -0.0000 </r>
       <r>   10.8045   -0.0000 </r>
       <r>   14.6988    0.0000 </r>
       <r>   15.4259    0.0000 </r>
      </set>
      <set comment="kpoint 24">
       <r>   -0.5605    1.0000 </r>
       <r>    2.3478    1.0000 </r>
       <r>    3.0705    1.0000 </r>
       <r>    3.0991    1.0000 </r>
       <r>    3.3555    1.0000 </r>
       <r>    3.3836    1.0000 </r>
       <r>    3.3961    1.0000 </r>
       <r>    4.0687    1.0000 </r>
       <r>    4.5783    1.0000 </r>
       <r>    4.6224    1.0000 </r>
       <r>    4.6333    1.0000 </r>
       <r>    4.6624    1.0000 </r>
       <r>    4.9602    1.0000 </r>
       <r>    4.9708    1.0000 </r>
       <r>    5.3192    1.0000 </r>
       <r>    5.3469    1.0000 </r>
       <r>    5.3806    1.0000 </r>
       <r>    5.4606    1.0000 </r>
       <r>    5.5556    1.0000 </r>
       <r>    5.8221    1.0000 </r>
       <r>    5.8241    1.0000 </r>
       <r>    6.0255    1.0000 </r>
       <r>   10.1686   -0.0000 </r>
       <r>   11.3666   -0.0000 </r>
       <r>   14.4929    0.0000 </r>
       <r>   15.0235    0.0000 </r>
      </set>
      <set comment="kpoint 25">
       <r>   -0.1627    1.0000 </r>
       <r>    2.0680    1.0000 </r>
       <r>    3.1911    1.0000 </r>
       <r>    3.2125    1.0000 </r>
       <r>    3.4480    1.0000 </r>
       <r>    3.4930    1.0000 </r>
       <r>    3.5165    1.0000 </r>
       <r>    3.9720    1.0000 </r>
       <r>    4.3450    1.0000 </r>
       <r>    4.4059    1.0000 </r>
       <r>    4.6544    1.0000 </r>
       <r>    4.7550    1.0000 </r>
       <r>    4.7872    1.0000 </r>
       <r>    4.9407    1.0000 </r>
       <r>    5.2605    1.0000 </r>
       <r>    5.2874    1.0000 </r>
       <r>    5.3394    1.0000 </r>
       <r>    5.3670    1.0000 </r>
       <r>    5.4567    1.0000 </r>
       <r>    5.7614    1.0000 </r>
       <r>    5.8218    1.0000 </r>
       <r>    5.8236    1.0000 </r>
       <r>   10.7039   -0.0000 </r>
       <r>   11.9765   -0.0000 </r>
       <r>   13.8199    0.0000 </r>
       <r>   15.1709    0.0000 </r>
      </set>
      <set comment="kpoint 26">
       <r>    0.2783    1.0000 </r>
       <r>    1.6825    1.0000 </r>
       <r>    3.2903    1.0000 </r>
       <r>    3.3050    1.0000 </r>
       <r>    3.5483    1.0000 </r>
       <r>    3.6186    1.0000 </r>
       <r>    3.6565    1.0000 </r>
       <r>    3.8685    1.0000 </r>
       <r>    4.1300    1.0000 </r>
       <r>    4.1920    1.0000 </r>
       <r>    4.6481    1.0000 </r>
       <r>    4.6672    1.0000 </r>
       <r>    4.8586    1.0000 </r>
       <r>    4.9795    1.0000 </r>
       <r>    5.1913    1.0000 </r>
       <r>    5.2092    1.0000 </r>
       <r>    5.2150    1.0000 </r>
       <r>    5.3220    1.0000 </r>
       <r>    5.4197    1.0000 </r>
       <r>    5.6250    1.0000 </r>
       <r>    5.8219    1.0000 </r>
       <r>    5.8232    1.0000 </r>
       <r>   11.2679   -0.0000 </r>
       <r>   12.6282   -0.0000 </r>
       <r>   13.1366    0.0000 </r>
       <r>   14.7976    0.0000 </r>
      </set>
      <set comment="kpoint 27">
       <r>    0.7492    1.0000 </r>
       <r>    1.2284    1.0000 </r>
       <r>    3.3498    1.0000 </r>
       <r>    3.3554    1.0000 </r>
       <r>    3.6537    1.0000 </r>
       <r>    3.7614    1.0000 </r>
       <r>    3.7653    1.0000 </r>
       <r>    3.8161    1.0000 </r>
       <r>    3.9360    1.0000 </r>
       <r>    3.9949    1.0000 </r>
       <r>    4.6202    1.0000 </r>
       <r>    4.6243    1.0000 </r>
       <r>    4.9715    1.0000 </r>
       <r>    5.0678    1.0000 </r>
       <r>    5.0913    1.0000 </r>
       <r>    5.1548    1.0000 </r>
       <r>    5.1611    1.0000 </r>
       <r>    5.1857    1.0000 </r>
       <r>    5.4775    1.0000 </r>
       <r>    5.5426    1.0000 </r>
       <r>    5.8222    1.0000 </r>
       <r>    5.8227    1.0000 </r>
       <r>   11.8605   -0.0000 </r>
       <r>   12.4829   -0.0000 </r>
       <r>   13.3177    0.0000 </r>
       <r>   14.0418    0.0000 </r>
      </set>
      <set comment="kpoint 28">
       <r>   -1.2597    1.0000 </r>
       <r>    2.7196    1.0000 </r>
       <r>    2.7196    1.0000 </r>
       <r>    2.8476    1.0000 </r>
       <r>    3.1894    1.0000 </r>
       <r>    3.1894    1.0000 </r>
       <r>    3.1901    1.0000 </r>
       <r>    4.2607    1.0000 </r>
       <r>    4.4894    1.0000 </r>
       <r>    4.5005    1.0000 </r>
       <r>    5.0991    1.0000 </r>
       <r>    5.1855    1.0000 </r>
       <r>    5.2219    1.0000 </r>
       <r>    5.2246    1.0000 </r>
       <r>    5.2246    1.0000 </r>
       <r>    5.5412    1.0000 </r>
       <r>    5.6316    1.0000 </r>
       <r>    5.6316    1.0000 </r>
       <r>    5.7605    1.0000 </r>
       <r>    5.7605    1.0000 </r>
       <r>    5.8017    1.0000 </r>
       <r>    8.0826   -0.0000 </r>
       <r>    8.0826   -0.0000 </r>
       <r>   10.1837   -0.0000 </r>
       <r>   14.5740    0.0000 </r>
       <r>   16.1440    0.0000 </r>
      </set>
      <set comment="kpoint 29">
       <r>   -1.0344    1.0000 </r>
       <r>    2.6891    1.0000 </r>
       <r>    2.8253    1.0000 </r>
       <r>    2.9357    1.0000 </r>
       <r>    3.2436    1.0000 </r>
       <r>    3.2464    1.0000 </r>
       <r>    3.2502    1.0000 </r>
       <r>    4.2122    1.0000 </r>
       <r>    4.5313    1.0000 </r>
       <r>    4.5320    1.0000 </r>
       <r>    4.9706    1.0000 </r>
       <r>    5.0037    1.0000 </r>
       <r>    5.0623    1.0000 </r>
       <r>    5.0836    1.0000 </r>
       <r>    5.2490    1.0000 </r>
       <r>    5.4774    1.0000 </r>
       <r>    5.5607    1.0000 </r>
       <r>    5.6105    1.0000 </r>
       <r>    5.6752    1.0000 </r>
       <r>    5.7599    1.0000 </r>
       <r>    5.7813    1.0000 </r>
       <r>    7.3942    0.4743 </r>
       <r>    8.4801   -0.0000 </r>
       <r>   10.5951   -0.0000 </r>
       <r>   14.6267    0.0000 </r>
       <r>   15.3164    0.0000 </r>
      </set>
      <set comment="kpoint 30">
       <r>   -0.7487    1.0000 </r>
       <r>    2.6102    1.0000 </r>
       <r>    2.9501    1.0000 </r>
       <r>    3.0398    1.0000 </r>
       <r>    3.3109    1.0000 </r>
       <r>    3.3174    1.0000 </r>
       <r>    3.3290    1.0000 </r>
       <r>    4.1460    1.0000 </r>
       <r>    4.5653    1.0000 </r>
       <r>    4.5927    1.0000 </r>
       <r>    4.7193    1.0000 </r>
       <r>    4.7993    1.0000 </r>
       <r>    4.9175    1.0000 </r>
       <r>    5.0168    1.0000 </r>
       <r>    5.2908    1.0000 </r>
       <r>    5.4007    1.0000 </r>
       <r>    5.4759    1.0000 </r>
       <r>    5.5712    1.0000 </r>
       <r>    5.5734    1.0000 </r>
       <r>    5.7592    1.0000 </r>
       <r>    5.7692    1.0000 </r>
       <r>    6.7927    1.0001 </r>
       <r>    8.9160   -0.0000 </r>
       <r>   11.0797   -0.0000 </r>
       <r>   14.3079    0.0000 </r>
       <r>   14.9412    0.0000 </r>
      </set>
      <set comment="kpoint 31">
       <r>   -0.4066    1.0000 </r>
       <r>    2.4487    1.0000 </r>
       <r>    3.0843    1.0000 </r>
       <r>    3.1535    1.0000 </r>
       <r>    3.3898    1.0000 </r>
       <r>    3.4002    1.0000 </r>
       <r>    3.4258    1.0000 </r>
       <r>    4.0660    1.0000 </r>
       <r>    4.4798    1.0000 </r>
       <r>    4.5877    1.0000 </r>
       <r>    4.5934    1.0000 </r>
       <r>    4.6692    1.0000 </r>
       <r>    4.7469    1.0000 </r>
       <r>    4.9795    1.0000 </r>
       <r>    5.3174    1.0000 </r>
       <r>    5.3432    1.0000 </r>
       <r>    5.3826    1.0000 </r>
       <r>    5.4597    1.0000 </r>
       <r>    5.5104    1.0000 </r>
       <r>    5.7584    1.0000 </r>
       <r>    5.7623    1.0000 </r>
       <r>    6.3239    1.0000 </r>
       <r>    9.3830   -0.0000 </r>
       <r>   11.6242   -0.0000 </r>
       <r>   13.5844    0.0000 </r>
       <r>   15.0591    0.0000 </r>
      </set>
      <set comment="kpoint 32">
       <r>   -0.0135    1.0000 </r>
       <r>    2.1776    1.0000 </r>
       <r>    3.2153    1.0000 </r>
       <r>    3.2677    1.0000 </r>
       <r>    3.4782    1.0000 </r>
       <r>    3.4910    1.0000 </r>
       <r>    3.5410    1.0000 </r>
       <r>    3.9756    1.0000 </r>
       <r>    4.2566    1.0000 </r>
       <r>    4.3792    1.0000 </r>
       <r>    4.5994    1.0000 </r>
       <r>    4.6090    1.0000 </r>
       <r>    4.7594    1.0000 </r>
       <r>    4.9731    1.0000 </r>
       <r>    5.2377    1.0000 </r>
       <r>    5.2899    1.0000 </r>
       <r>    5.3386    1.0000 </r>
       <r>    5.4042    1.0000 </r>
       <r>    5.4242    1.0000 </r>
       <r>    5.7576    1.0000 </r>
       <r>    5.7586    1.0000 </r>
       <r>    5.9977    1.0000 </r>
       <r>    9.8789   -0.0000 </r>
       <r>   12.2196   -0.0000 </r>
       <r>   12.8666    0.0000 </r>
       <r>   15.2648    0.0000 </r>
      </set>
      <set comment="kpoint 33">
       <r>    0.4217    1.0000 </r>
       <r>    1.8014    1.0000 </r>
       <r>    3.3265    1.0000 </r>
       <r>    3.3646    1.0000 </r>
       <r>    3.5739    1.0000 </r>
       <r>    3.5917    1.0000 </r>
       <r>    3.6746    1.0000 </r>
       <r>    3.8781    1.0000 </r>
       <r>    4.0528    1.0000 </r>
       <r>    4.1805    1.0000 </r>
       <r>    4.5328    1.0000 </r>
       <r>    4.5761    1.0000 </r>
       <r>    4.8613    1.0000 </r>
       <r>    5.0130    1.0000 </r>
       <r>    5.1754    1.0000 </r>
       <r>    5.2102    1.0000 </r>
       <r>    5.2147    1.0000 </r>
       <r>    5.3151    1.0000 </r>
       <r>    5.4738    1.0000 </r>
       <r>    5.7568    1.0000 </r>
       <r>    5.7569    1.0000 </r>
       <r>    5.7886    1.0000 </r>
       <r>   10.4044   -0.0000 </r>
       <r>   12.1899   -0.0000 </r>
       <r>   12.8596    0.0000 </r>
       <r>   15.0058    0.0000 </r>
      </set>
      <set comment="kpoint 34">
       <r>    0.8855    1.0000 </r>
       <r>    1.3564    1.0000 </r>
       <r>    3.3988    1.0000 </r>
       <r>    3.4140    1.0000 </r>
       <r>    3.6743    1.0000 </r>
       <r>    3.7158    1.0000 </r>
       <r>    3.7767    1.0000 </r>
       <r>    3.8262    1.0000 </r>
       <r>    3.8710    1.0000 </r>
       <r>    3.9953    1.0000 </r>
       <r>    4.5168    1.0000 </r>
       <r>    4.5398    1.0000 </r>
       <r>    4.9728    1.0000 </r>
       <r>    5.0916    1.0000 </r>
       <r>    5.0928    1.0000 </r>
       <r>    5.1457    1.0000 </r>
       <r>    5.1580    1.0000 </r>
       <r>    5.1984    1.0000 </r>
       <r>    5.5542    1.0000 </r>
       <r>    5.6528    1.0000 </r>
       <r>    5.7563    1.0000 </r>
       <r>    5.7564    1.0000 </r>
       <r>   10.9622   -0.0000 </r>
       <r>   11.5560   -0.0000 </r>
       <r>   13.5395    0.0000 </r>
       <r>   14.2559    0.0000 </r>
      </set>
      <set comment="kpoint 35">
       <r>   -0.8121    1.0000 </r>
       <r>    2.8026    1.0000 </r>
       <r>    2.8026    1.0000 </r>
       <r>    3.0176    1.0000 </r>
       <r>    3.2959    1.0000 </r>
       <r>    3.3010    1.0000 </r>
       <r>    3.3010    1.0000 </r>
       <r>    4.1773    1.0000 </r>
       <r>    4.5460    1.0000 </r>
       <r>    4.5643    1.0000 </r>
       <r>    4.8319    1.0000 </r>
       <r>    4.8319    1.0000 </r>
       <r>    4.8656    1.0000 </r>
       <r>    5.0393    1.0000 </r>
       <r>    5.2783    1.0000 </r>
       <r>    5.4203    1.0000 </r>
       <r>    5.5434    1.0000 </r>
       <r>    5.5434    1.0000 </r>
       <r>    5.6743    1.0000 </r>
       <r>    5.6743    1.0000 </r>
       <r>    5.7428    1.0000 </r>
       <r>    7.7730   -0.0101 </r>
       <r>    7.7730   -0.0101 </r>
       <r>   10.9819   -0.0000 </r>
       <r>   14.2426    0.0000 </r>
       <r>   14.9134    0.0000 </r>
      </set>
      <set comment="kpoint 36">
       <r>   -0.5306    1.0000 </r>
       <r>    2.7334    1.0000 </r>
       <r>    2.9373    1.0000 </r>
       <r>    3.1143    1.0000 </r>
       <r>    3.3577    1.0000 </r>
       <r>    3.3640    1.0000 </r>
       <r>    3.3752    1.0000 </r>
       <r>    4.1246    1.0000 </r>
       <r>    4.5609    1.0000 </r>
       <r>    4.5906    1.0000 </r>
       <r>    4.6158    1.0000 </r>
       <r>    4.6800    1.0000 </r>
       <r>    4.7009    1.0000 </r>
       <r>    5.0046    1.0000 </r>
       <r>    5.3288    1.0000 </r>
       <r>    5.3513    1.0000 </r>
       <r>    5.4620    1.0000 </r>
       <r>    5.5070    1.0000 </r>
       <r>    5.5724    1.0000 </r>
       <r>    5.6733    1.0000 </r>
       <r>    5.7147    1.0000 </r>
       <r>    7.1463    1.0354 </r>
       <r>    8.1808   -0.0000 </r>
       <r>   11.4438   -0.0000 </r>
       <r>   13.4549    0.0000 </r>
       <r>   15.0042    0.0000 </r>
      </set>
      <set comment="kpoint 37">
       <r>   -0.1939    1.0000 </r>
       <r>    2.5831    1.0000 </r>
       <r>    3.0836    1.0000 </r>
       <r>    3.2215    1.0000 </r>
       <r>    3.4269    1.0000 </r>
       <r>    3.4377    1.0000 </r>
       <r>    3.4662    1.0000 </r>
       <r>    4.0566    1.0000 </r>
       <r>    4.3647    1.0000 </r>
       <r>    4.5222    1.0000 </r>
       <r>    4.5401    1.0000 </r>
       <r>    4.5674    1.0000 </r>
       <r>    4.6852    1.0000 </r>
       <r>    4.9754    1.0000 </r>
       <r>    5.2759    1.0000 </r>
       <r>    5.3716    1.0000 </r>
       <r>    5.3951    1.0000 </r>
       <r>    5.4488    1.0000 </r>
       <r>    5.4588    1.0000 </r>
       <r>    5.6723    1.0000 </r>
       <r>    5.6961    1.0000 </r>
       <r>    6.6383    1.0000 </r>
       <r>    8.6149   -0.0000 </r>
       <r>   11.9685   -0.0000 </r>
       <r>   12.6819   -0.0000 </r>
       <r>   15.1774    0.0000 </r>
      </set>
      <set comment="kpoint 38">
       <r>    0.1922    1.0000 </r>
       <r>    2.3241    1.0000 </r>
       <r>    3.2291    1.0000 </r>
       <r>    3.3348    1.0000 </r>
       <r>    3.4948    1.0000 </r>
       <r>    3.5202    1.0000 </r>
       <r>    3.5741    1.0000 </r>
       <r>    3.9768    1.0000 </r>
       <r>    4.1564    1.0000 </r>
       <r>    4.3403    1.0000 </r>
       <r>    4.4439    1.0000 </r>
       <r>    4.5535    1.0000 </r>
       <r>    4.7701    1.0000 </r>
       <r>    4.9722    1.0000 </r>
       <r>    5.2040    1.0000 </r>
       <r>    5.2805    1.0000 </r>
       <r>    5.3382    1.0000 </r>
       <r>    5.3685    1.0000 </r>
       <r>    5.4740    1.0000 </r>
       <r>    5.6716    1.0000 </r>
       <r>    5.6843    1.0000 </r>
       <r>    6.2600    1.0000 </r>
       <r>    9.0768   -0.0000 </r>
       <r>   11.9588   -0.0000 </r>
       <r>   12.5470   -0.0000 </r>
[...]
       <r>    2.4919    1.0000 </r>
       <r>    4.2849    1.0000 </r>
       <r>    4.2849    1.0000 </r>
       <r>    4.2849    1.0000 </r>
       <r>    4.3876    1.0000 </r>
       <r>    4.3876    1.0000 </r>
       <r>    4.4334    1.0000 </r>
       <r>    4.4334    1.0000 </r>
       <r>    4.4334    1.0000 </r>
       <r>    5.1381    1.0000 </r>
       <r>    5.1381    1.0000 </r>
       <r>    5.1381    1.0000 </r>
       <r>    5.5093    1.0000 </r>
       <r>    5.6760    1.0000 </r>
       <r>    5.6760    1.0000 </r>
       <r>    5.7466    1.0000 </r>
       <r>    5.7466    1.0000 </r>
       <r>    5.7466    1.0000 </r>
       <r>    7.0506    1.0191 </r>
       <r>    7.0506    1.0191 </r>
       <r>    7.0506    1.0191 </r>
       <r>   11.2916   -0.0000 </r>
       <r>   11.2916   -0.0000 </r>
      </set>
      <set comment="kpoint 218">
       <r>    2.3167    1.0000 </r>
       <r>    2.4004    1.0000 </r>
       <r>    2.4780    1.0000 </r>
       <r>    2.4780    1.0000 </r>
       <r>    4.3007    1.0000 </r>
       <r>    4.3007    1.0000 </r>
       <r>    4.3326    1.0000 </r>
       <r>    4.3668    1.0000 </r>
       <r>    4.3863    1.0000 </r>
       <r>    4.4017    1.0000 </r>
       <r>    4.4134    1.0000 </r>
       <r>    4.4134    1.0000 </r>
       <r>    5.2560    1.0000 </r>
       <r>    5.2560    1.0000 </r>
       <r>    5.3113    1.0000 </r>
       <r>    5.4715    1.0000 </r>
       <r>    5.7175    1.0000 </r>
       <r>    5.7370    1.0000 </r>
       <r>    5.7370    1.0000 </r>
       <r>    5.7413    1.0000 </r>
       <r>    6.0298    1.0000 </r>
       <r>    6.5310    1.0000 </r>
       <r>    7.0423    1.0173 </r>
       <r>    7.0423    1.0173 </r>
       <r>   11.0931   -0.0000 </r>
       <r>   11.0931   -0.0000 </r>
      </set>
      <set comment="kpoint 219">
       <r>    2.3594    1.0000 </r>
       <r>    2.4128    1.0000 </r>
       <r>    2.4128    1.0000 </r>
       <r>    2.4385    1.0000 </r>
       <r>    4.3270    1.0000 </r>
       <r>    4.3377    1.0000 </r>
       <r>    4.3377    1.0000 </r>
       <r>    4.3617    1.0000 </r>
       <r>    4.3745    1.0000 </r>
       <r>    4.3856    1.0000 </r>
       <r>    4.3856    1.0000 </r>
       <r>    4.3895    1.0000 </r>
       <r>    5.4109    1.0000 </r>
       <r>    5.4439    1.0000 </r>
       <r>    5.4439    1.0000 </r>
       <r>    5.5748    1.0000 </r>
       <r>    5.7079    1.0000 </r>
       <r>    5.7316    1.0000 </r>
       <r>    5.7316    1.0000 </r>
       <r>    5.7319    1.0000 </r>
       <r>    6.2454    1.0000 </r>
       <r>    6.6342    1.0000 </r>
       <r>    6.6342    1.0000 </r>
       <r>    6.8257    1.0003 </r>
       <r>   11.0746   -0.0000 </r>
       <r>   11.2465   -0.0000 </r>
      </set>
      <set comment="kpoint 220">
       <r>    2.3721    1.0000 </r>
       <r>    2.3983    1.0000 </r>
       <r>    2.3983    1.0000 </r>
       <r>    2.3983    1.0000 </r>
       <r>    4.3511    1.0000 </r>
       <r>    4.3511    1.0000 </r>
       <r>    4.3511    1.0000 </r>
       <r>    4.3626    1.0000 </r>
       <r>    4.3626    1.0000 </r>
       <r>    4.3677    1.0000 </r>
       <r>    4.3677    1.0000 </r>
       <r>    4.3677    1.0000 </r>
       <r>    5.6245    1.0000 </r>
       <r>    5.6245    1.0000 </r>
       <r>    5.6245    1.0000 </r>
       <r>    5.7346    1.0000 </r>
       <r>    5.7346    1.0000 </r>
       <r>    5.7427    1.0000 </r>
       <r>    5.7427    1.0000 </r>
       <r>    5.7427    1.0000 </r>
       <r>    6.2789    1.0000 </r>
       <r>    6.5353    1.0000 </r>
       <r>    6.5353    1.0000 </r>
       <r>    6.5353    1.0000 </r>
       <r>   11.0562   -0.0000 </r>
       <r>   11.0562   -0.0000 </r>
      </set>
     </set>
    </set>
   </array>
  </eigenvalues>
  <separator name="orbital magnetization" >
   <v name="MAGDIPOLOUT">      0.00000000      0.00000000      0.00000000</v>
  </separator>
  <dos>
   <i name="efermi">      7.38813422 </i>
   <total>
    <array>
     <dimension dim="1">gridpoints</dimension>
     <dimension dim="2">spin</dimension>
     <field>energy</field>
     <field>total</field>
     <field>integrated</field>
     <set>
      <set comment="spin 1">
       <r>    -3.8511     0.0000     0.0000 </r>
       <r>    -3.7750     0.0000     0.0000 </r>
       <r>    -3.6990     0.0000     0.0000 </r>
       <r>    -3.6229     0.0000     0.0000 </r>
       <r>    -3.5468     0.0000     0.0000 </r>
       <r>    -3.4707    -0.0000    -0.0000 </r>
       <r>    -3.3947    -0.0000    -0.0000 </r>
       <r>    -3.3186    -0.0000    -0.0000 </r>
       <r>    -3.2425    -0.0000    -0.0000 </r>
       <r>    -3.1664    -0.0000    -0.0000 </r>
       <r>    -3.0904    -0.0000    -0.0000 </r>
       <r>    -3.0143    -0.0000    -0.0000 </r>
       <r>    -2.9382    -0.0000    -0.0000 </r>
       <r>    -2.8621    -0.0000    -0.0000 </r>
       <r>    -2.7861    -0.0000    -0.0000 </r>
       <r>    -2.7100    -0.0000    -0.0000 </r>
       <r>    -2.6339    -0.0000    -0.0000 </r>
       <r>    -2.5578    -0.0000    -0.0000 </r>
       <r>    -2.4818    -0.0000    -0.0000 </r>
       <r>    -2.4057    -0.0000    -0.0000 </r>
       <r>    -2.3296    -0.0000    -0.0000 </r>
       <r>    -2.2535    -0.0003    -0.0000 </r>
       <r>    -2.1775    -0.0009    -0.0001 </r>
       <r>    -2.1014    -0.0024    -0.0003 </r>
       <r>    -2.0253    -0.0037    -0.0006 </r>
       <r>    -1.9492    -0.0004    -0.0006 </r>
       <r>    -1.8732     0.0139     0.0005 </r>
       <r>    -1.7971     0.0426     0.0037 </r>
       <r>    -1.7210     0.0806     0.0098 </r>
       <r>    -1.6449     0.1184     0.0189 </r>
       <r>    -1.5688     0.1499     0.0303 </r>
       <r>    -1.4928     0.1742     0.0435 </r>
       <r>    -1.4167     0.1937     0.0582 </r>
       <r>    -1.3406     0.2132     0.0745 </r>
       <r>    -1.2645     0.2330     0.0922 </r>
       <r>    -1.1885     0.2477     0.1110 </r>
       <r>    -1.1124     0.2591     0.1307 </r>
       <r>    -1.0363     0.2772     0.1518 </r>
       <r>    -0.9602     0.2996     0.1746 </r>
       <r>    -0.8842     0.3128     0.1984 </r>
       <r>    -0.8081     0.3175     0.2226 </r>
       <r>    -0.7320     0.3279     0.2475 </r>
       <r>    -0.6559     0.3497     0.2741 </r>
       <r>    -0.5799     0.3749     0.3026 </r>
       <r>    -0.5038     0.3897     0.3323 </r>
       <r>    -0.4277     0.3872     0.3617 </r>
       <r>    -0.3516     0.3843     0.3910 </r>
       <r>    -0.2756     0.4077     0.4220 </r>
       <r>    -0.1995     0.4497     0.4562 </r>
       <r>    -0.1234     0.4722     0.4921 </r>
       <r>    -0.0473     0.4622     0.5273 </r>
       <r>     0.0287     0.4504     0.5616 </r>
       <r>     0.1048     0.4674     0.5971 </r>
       <r>     0.1809     0.5065     0.6356 </r>
       <r>     0.2570     0.5378     0.6766 </r>
       <r>     0.3330     0.5487     0.7183 </r>
       <r>     0.4091     0.5538     0.7604 </r>
       <r>     0.4852     0.5602     0.8030 </r>
       <r>     0.5613     0.5627     0.8459 </r>
       <r>     0.6373     0.5754     0.8896 </r>
       <r>     0.7134     0.6180     0.9366 </r>
       <r>     0.7895     0.6721     0.9878 </r>
       <r>     0.8656     0.6939     1.0406 </r>
       <r>     0.9416     0.6721     1.0917 </r>
       <r>     1.0177     0.6529     1.1414 </r>
       <r>     1.0938     0.6875     1.1937 </r>
       <r>     1.1699     0.7638     1.2518 </r>
       <r>     1.2459     0.8213     1.3143 </r>
       <r>     1.3220     0.8281     1.3772 </r>
       <r>     1.3981     0.8156     1.4393 </r>
       <r>     1.4742     0.8381     1.5031 </r>
       <r>     1.5502     0.9043     1.5718 </r>
       <r>     1.6263     0.9705     1.6457 </r>
       <r>     1.7024     1.0094     1.7225 </r>
       <r>     1.7785     1.0476     1.8022 </r>
       <r>     1.8546     1.1135     1.8869 </r>
       <r>     1.9306     1.1940     1.9777 </r>
       <r>     2.0067     1.2681     2.0742 </r>
       <r>     2.0828     1.3565     2.1774 </r>
       <r>     2.1589     1.5040     2.2918 </r>
       <r>     2.2349     1.7209     2.4227 </r>
       <r>     2.3110     1.9960     2.5746 </r>
       <r>     2.3871     2.3528     2.7536 </r>
       <r>     2.4632     2.8199     2.9681 </r>
       <r>     2.5392     3.3724     3.2246 </r>
       <r>     2.6153     3.9417     3.5245 </r>
       <r>     2.6914     4.4326     3.8617 </r>
       <r>     2.7675     4.7551     4.2235 </r>
       <r>     2.8435     4.9173     4.5976 </r>
       <r>     2.9196     5.0726     4.9835 </r>
       <r>     2.9957     5.4397     5.3973 </r>
       <r>     3.0718     6.1573     5.8657 </r>
       <r>     3.1478     7.1778     6.4118 </r>
       <r>     3.2239     8.2759     7.0414 </r>
       <r>     3.3000     9.1463     7.7372 </r>
       <r>     3.3761     9.5365     8.4627 </r>
       <r>     3.4521     9.4201     9.1793 </r>
       <r>     3.5282     9.0486     9.8677 </r>
       <r>     3.6043     8.7153    10.5307 </r>
       <r>     3.6804     8.5184    11.1787 </r>
       <r>     3.7564     8.4808    11.8239 </r>
       <r>     3.8325     8.7595    12.4903 </r>
       <r>     3.9086     9.5059    13.2135 </r>
       <r>     3.9847    10.5869    14.0189 </r>
       <r>     4.0607    11.6616    14.9060 </r>
       <r>     4.1368    12.5440    15.8603 </r>
       <r>     4.2129    13.3623    16.8769 </r>
       <r>     4.2890    14.3546    17.9689 </r>
       <r>     4.3650    15.5830    19.1544 </r>
       <r>     4.4411    16.8058    20.4329 </r>
       <r>     4.5172    17.4652    21.7616 </r>
       <r>     4.5933    16.9048    23.0476 </r>
       <r>     4.6693    15.0316    24.1912 </r>
       <r>     4.7454    12.7273    25.1594 </r>
       <r>     4.8215    11.2072    26.0120 </r>
       <r>     4.8976    11.0717    26.8543 </r>
       <r>     4.9736    12.1064    27.7753 </r>
       <r>     5.0497    13.6135    28.8109 </r>
       <r>     5.1258    14.7624    29.9340 </r>
       <r>     5.2019    14.9901    31.0744 </r>
       <r>     5.2779    14.3608    32.1669 </r>
       <r>     5.3540    13.5011    33.1940 </r>
       <r>     5.4301    13.1947    34.1978 </r>
       <r>     5.5062    14.1038    35.2707 </r>
       <r>     5.5823    16.4394    36.5214 </r>
       <r>     5.6583    19.1899    37.9812 </r>
       <r>     5.7344    19.9861    39.5017 </r>
       <r>     5.8105    16.9935    40.7945 </r>
       <r>     5.8866    11.1527    41.6429 </r>
       <r>     5.9626     5.4929    42.0608 </r>
       <r>     6.0387     2.1802    42.2267 </r>
       <r>     6.1148     1.1308    42.3127 </r>
       <r>     6.1909     1.1535    42.4004 </r>
       <r>     6.2669     1.3522    42.5033 </r>
       <r>     6.3430     1.4472    42.6134 </r>
       <r>     6.4191     1.4692    42.7252 </r>
       <r>     6.4952     1.4644    42.8366 </r>
       <r>     6.5712     1.4387    42.9460 </r>
       <r>     6.6473     1.4120    43.0534 </r>
       <r>     6.7234     1.3932    43.1594 </r>
       <r>     6.7995     1.3480    43.2620 </r>
       <r>     6.8755     1.2811    43.3595 </r>
       <r>     6.9516     1.2793    43.4568 </r>
       <r>     7.0277     1.3668    43.5608 </r>
       <r>     7.1038     1.4071    43.6678 </r>
       <r>     7.1798     1.2892    43.7659 </r>
       <r>     7.2559     1.1196    43.8510 </r>
       <r>     7.3320     1.0854    43.9336 </r>
       <r>     7.4081     1.2017    44.0250 </r>
       <r>     7.4841     1.3177    44.1253 </r>
       <r>     7.5602     1.3182    44.2256 </r>
       <r>     7.6363     1.2188    44.3183 </r>
       <r>     7.7124     1.1010    44.4020 </r>
       <r>     7.7884     1.0464    44.4816 </r>
       <r>     7.8645     1.0930    44.5648 </r>
       <r>     7.9406     1.1830    44.6548 </r>
       <r>     8.0167     1.2077    44.7467 </r>
       <r>     8.0927     1.1402    44.8334 </r>
       <r>     8.1688     1.0552    44.9137 </r>
       <r>     8.2449     1.0212    44.9914 </r>
       <r>     8.3210     1.0467    45.0710 </r>
       <r>     8.3970     1.1026    45.1549 </r>
       <r>     8.4731     1.1396    45.2416 </r>
       <r>     8.5492     1.1205    45.3268 </r>
       <r>     8.6253     1.0560    45.4072 </r>
       <r>     8.7013     0.9851    45.4821 </r>
       <r>     8.7774     0.9458    45.5541 </r>
       <r>     8.8535     0.9706    45.6279 </r>
       <r>     8.9296     1.0591    45.7085 </r>
       <r>     9.0056     1.1496    45.7959 </r>
       <r>     9.0817     1.1534    45.8837 </r>
       <r>     9.1578     1.0534    45.9638 </r>
       <r>     9.2339     0.9431    46.0356 </r>
       <r>     9.3100     0.9037    46.1043 </r>
       <r>     9.3860     0.8983    46.1727 </r>
       <r>     9.4621     0.8777    46.2394 </r>
       <r>     9.5382     0.8893    46.3071 </r>
       <r>     9.6143     0.9712    46.3810 </r>
       <r>     9.6903     1.0439    46.4604 </r>
       <r>     9.7664     1.0178    46.5378 </r>
       <r>     9.8425     0.9072    46.6068 </r>
       <r>     9.9186     0.7787    46.6661 </r>
       <r>     9.9946     0.6906    46.7186 </r>
       <r>    10.0707     0.6827    46.7705 </r>
       <r>    10.1468     0.7427    46.8270 </r>
       <r>    10.2229     0.8174    46.8892 </r>
       <r>    10.2989     0.8656    46.9551 </r>
       <r>    10.3750     0.8606    47.0206 </r>
       <r>    10.4511     0.7949    47.0810 </r>
       <r>    10.5272     0.7069    47.1348 </r>
       <r>    10.6032     0.6422    47.1837 </r>
       <r>    10.6793     0.6000    47.2293 </r>
       <r>    10.7554     0.5583    47.2718 </r>
       <r>    10.8315     0.5312    47.3122 </r>
       <r>    10.9075     0.5697    47.3555 </r>
       <r>    10.9836     0.6944    47.4084 </r>
       <r>    11.0597     0.8455    47.4727 </r>
       <r>    11.1358     0.9408    47.5442 </r>
       <r>    11.2118     0.9735    47.6183 </r>
       <r>    11.2879     1.0004    47.6944 </r>
       <r>    11.3640     1.0517    47.7744 </r>
       <r>    11.4401     1.1064    47.8586 </r>
       <r>    11.5161     1.1306    47.9446 </r>
       <r>    11.5922     1.1085    48.0289 </r>
       <r>    11.6683     1.0676    48.1101 </r>
       <r>    11.7444     1.0644    48.1911 </r>
       <r>    11.8204     1.1072    48.2754 </r>
       <r>    11.8965     1.1391    48.3620 </r>
       <r>    11.9726     1.1246    48.4476 </r>
       <r>    12.0487     1.0845    48.5301 </r>
       <r>    12.1247     1.0457    48.6096 </r>
       <r>    12.2008     1.0223    48.6874 </r>
       <r>    12.2769     1.0249    48.7654 </r>
       <r>    12.3530     1.0465    48.8450 </r>
       <r>    12.4290     1.0559    48.9253 </r>
       <r>    12.5051     1.0339    49.0040 </r>
       <r>    12.5812     1.0012    49.0801 </r>
       <r>    12.6573     0.9818    49.1548 </r>
       <r>    12.7333     0.9679    49.2285 </r>
       <r>    12.8094     0.9521    49.3009 </r>
       <r>    12.8855     0.9448    49.3728 </r>
       <r>    12.9616     0.9401    49.4443 </r>
       <r>    13.0377     0.9182    49.5141 </r>
       <r>    13.1137     0.8804    49.5811 </r>
       <r>    13.1898     0.8392    49.6450 </r>
       <r>    13.2659     0.8029    49.7060 </r>
       <r>    13.3420     0.7879    49.7660 </r>
       <r>    13.4180     0.8025    49.8270 </r>
       <r>    13.4941     0.8237    49.8897 </r>
       <r>    13.5702     0.8187    49.9520 </r>
       <r>    13.6463     0.7825    50.0115 </r>
       <r>    13.7223     0.7502    50.0686 </r>
       <r>    13.7984     0.7500    50.1256 </r>
       <r>    13.8745     0.7572    50.1832 </r>
       <r>    13.9506     0.7383    50.2394 </r>
       <r>    14.0266     0.7072    50.2932 </r>
       <r>    14.1027     0.6927    50.3459 </r>
       <r>    14.1788     0.6911    50.3985 </r>
       <r>    14.2549     0.6835    50.4505 </r>
       <r>    14.3309     0.6755    50.5019 </r>
       <r>    14.4070     0.7042    50.5554 </r>
       <r>    14.4831     0.7890    50.6155 </r>
       <r>    14.5592     0.8971    50.6837 </r>
       <r>    14.6352     0.9900    50.7590 </r>
       <r>    14.7113     1.0621    50.8398 </r>
       <r>    14.7874     1.1053    50.9239 </r>
       <r>    14.8635     1.0997    51.0076 </r>
       <r>    14.9395     1.0499    51.0874 </r>
       <r>    15.0156     0.9764    51.1617 </r>
       <r>    15.0917     0.8965    51.2299 </r>
       <r>    15.1678     0.8358    51.2935 </r>
       <r>    15.2438     0.8150    51.3555 </r>
       <r>    15.3199     0.8305    51.4187 </r>
       <r>    15.3960     0.8618    51.4842 </r>
       <r>    15.4721     0.8778    51.5510 </r>
       <r>    15.5481     0.8580    51.6163 </r>
       <r>    15.6242     0.8144    51.6782 </r>
       <r>    15.7003     0.7597    51.7360 </r>
       <r>    15.7764     0.6755    51.7874 </r>
       <r>    15.8524     0.5508    51.8293 </r>
       <r>    15.9285     0.4199    51.8613 </r>
       <r>    16.0046     0.3204    51.8857 </r>
       <r>    16.0807     0.2539    51.9050 </r>
       <r>    16.1567     0.2105    51.9210 </r>
       <r>    16.2328     0.1919    51.9356 </r>
       <r>    16.3089     0.1951    51.9504 </r>
       <r>    16.3850     0.1949    51.9652 </r>
       <r>    16.4610     0.1642    51.9777 </r>
       <r>    16.5371     0.1088    51.9860 </r>
       <r>    16.6132     0.0592    51.9905 </r>
       <r>    16.6893     0.0323    51.9930 </r>
       <r>    16.7654     0.0223    51.9947 </r>
       <r>    16.8414     0.0192    51.9961 </r>
       <r>    16.9175     0.0182    51.9975 </r>
       <r>    16.9936     0.0164    51.9988 </r>
       <r>    17.0697     0.0118    51.9997 </r>
       <r>    17.1457     0.0055    52.0001 </r>
       <r>    17.2218     0.0008    52.0001 </r>
       <r>    17.2979    -0.0008    52.0001 </r>
       <r>    17.3740    -0.0007    52.0000 </r>
       <r>    17.4500    -0.0003    52.0000 </r>
       <r>    17.5261    -0.0001    52.0000 </r>
       <r>    17.6022    -0.0000    52.0000 </r>
       <r>    17.6783    -0.0000    52.0000 </r>
       <r>    17.7543    -0.0000    52.0000 </r>
       <r>    17.8304    -0.0000    52.0000 </r>
       <r>    17.9065    -0.0000    52.0000 </r>
       <r>    17.9826    -0.0000    52.0000 </r>
       <r>    18.0586    -0.0000    52.0000 </r>
       <r>    18.1347    -0.0000    52.0000 </r>
       <r>    18.2108    -0.0000    52.0000 </r>
       <r>    18.2869     0.0000    52.0000 </r>
       <r>    18.3629     0.0000    52.0000 </r>
       <r>    18.4390     0.0000    52.0000 </r>
       <r>    18.5151     0.0000    52.0000 </r>
       <r>    18.5912     0.0000    52.0000 </r>
       <r>    18.6672     0.0000    52.0000 </r>
       <r>    18.7433     0.0000    52.0000 </r>
       <r>    18.8194     0.0000    52.0000 </r>
       <r>    18.8955     0.0000    52.0000 </r>
       <r>    18.9715     0.0000    52.0000 </r>
      </set>
     </set>
    </array>
   </total>
  </dos>
 </calculation>
 <structure name="finalpos" >
  <crystal>
   <varray name="basis" >
    <v>       3.63689449       0.00000000       0.00000000 </v>
    <v>       0.00000000       3.63689449       0.00000000 </v>
    <v>       0.00000000       0.00000000       3.63689449 </v>
   </varray>
   <i name="volume">     48.10520895 </i>
   <varray name="rec_basis" >
    <v>       0.27495986       0.00000000       0.00000000 </v>
    <v>       0.00000000       0.27495986       0.00000000 </v>
    <v>       0.00000000       0.00000000       0.27495986 </v>
   </varray>
  </crystal>
  <varray name="positions" >
   <v>       0.00000000       0.00000000       0.00000000 </v>
   <v>       0.00000000       0.50000000       0.50000000 </v>
   <v>       0.50000000       0.00000000       0.50000000 </v>
   <v>       0.50000000       0.50000000       0.00000000 </v>
  </varray>
 </structure>
</modeling>
