    8    8    1    1
  0.2779555E+02  0.6058360E-09  0.6058360E-09  0.6058360E-09  0.5000000E-15
  1.000000000000000E-004
  CAR 
 unknown system                          
     72     10     48
 
  0.0000000E+00  0.0000000E+00  0.0000000E+00  0.1562500E-01
    1      -10.223709
    2      -10.223709
    3      -10.223709
    4      -10.037652
    5      -10.037652
    6      -10.037652
    7       -9.956341
    8       -9.956341
    9       -9.956341
   10       -9.956341
   11       -9.956341
   12       -9.956341
   13       -9.947343
   14       -9.947343
   15       -9.947343
   16       -9.908451
   17       -9.908451
   18       -9.885620
   19       -9.885620
   20       -9.885620
   21       -7.598230
   22       -5.593040
   23       -5.593040
   24       -5.593040
   25       -1.613922
   26       -1.613922
   27       -1.613922
   28        1.952555
   29        1.952555
   30        1.952555
   31        1.952555
   32        1.952555
   33        1.952555
   34        3.855462
   35        4.281118
   36        4.281118
   37        4.281118
   38        5.710855
   39        5.710855
   40        5.710855
   41        6.236098
   42        6.236098
   43        6.236098
   44        8.099982
   45        8.099982
   46        8.099982
   47       11.540925
   48       13.246278
 
  0.2500000E+00  0.0000000E+00  0.0000000E+00  0.9375000E-01
    1      -10.212786
    2      -10.212786
    3      -10.201044
    4      -10.070950
    5      -10.025952
    6      -10.025952
    7       -9.971661
    8       -9.971661
    9       -9.968808
   10       -9.968808
   11       -9.960775
   12       -9.960775
   13       -9.940780
   14       -9.936613
   15       -9.936613
   16       -9.912885
   17       -9.904985
   18       -9.891364
   19       -9.891364
   20       -9.888990
   21       -7.383574
   22       -6.028581
   23       -5.567443
   24       -5.567443
   25       -1.548403
   26       -1.548403
   27       -0.945143
   28        1.614512
   29        1.614512
   30        1.644353
   31        1.644353
   32        2.188230
   33        2.188230
   34        2.222768
   35        3.747305
   36        3.747305
   37        5.864162
   38        5.883563
   39        6.565018
   40        6.646301
   41        6.646301
   42        7.087681
   43        7.087681
   44        7.399861
   45        8.860090
   46        8.860090
   47       11.481200
   48       11.481202
 
  0.5000000E+00  0.0000000E+00  0.0000000E+00  0.4687500E-01
    1      -10.200398
    2      -10.200398
    3      -10.141053
    4      -10.141053
    5       -9.997784
    6       -9.997784
    7       -9.997784
    8       -9.997784
    9       -9.988394
   10       -9.988394
   11       -9.962852
   12       -9.962852
   13       -9.926089
   14       -9.926089
   15       -9.925208
   16       -9.925208
   17       -9.899970
   18       -9.899970
   19       -9.897017
   20       -9.897017
   21       -6.797029
   22       -6.797029
   23       -5.541522
   24       -5.541522
   25       -1.475497
   26       -1.475497
   27        0.507858
   28        0.507858
   29        1.318213
   30        1.318213
   31        1.393551
   32        1.393551
   33        2.849085
   34        2.849085
   35        2.849085
   36        2.849085
   37        6.434349
   38        6.434349
   39        6.929356
   40        6.929356
   41        8.386436
   42        8.386436
   43        8.483434
   44        8.483434
   45        9.133431
   46        9.133431
   47       10.238114
   48       10.238116
 
  0.2500000E+00  0.2500000E+00  0.0000000E+00  0.1875000E+00
    1      -10.202983
    2      -10.193499
    3      -10.193499
    4      -10.088639
    5      -10.025118
    6      -10.019258
    7       -9.981918
    8       -9.981918
    9       -9.979358
   10       -9.971697
   11       -9.971697
   12       -9.967708
   13       -9.931999
   14       -9.931999
   15       -9.929556
   16       -9.911618
   17       -9.905483
   18       -9.895857
   19       -9.892943
   20       -9.892943
   21       -7.181648
   22       -5.940672
   23       -5.940672
   24       -5.609376
   25       -1.480666
   26       -1.055447
   27       -1.055447
   28        0.994557
   29        1.314310
   30        1.687681
   31        1.687681
   32        2.165378
   33        2.165378
   34        2.326926
   35        3.167886
   36        4.035999
   37        5.953757
   38        6.277413
   39        6.849639
   40        6.849639
   41        7.246460
   42        7.246460
   43        8.135133
   44        8.448093
   45        8.502830
   46        9.237423
   47        9.997970
   48        9.997970
 
  0.5000000E+00  0.2500000E+00 -0.1232595E-31  0.1875000E+00
    1      -10.188532
    2      -10.188532
    3      -10.143253
    4      -10.143253
    5      -10.003819
    6      -10.003819
    7       -9.999112
    8       -9.999112
    9       -9.993150
   10       -9.993150
   11       -9.973472
   12       -9.973472
   13       -9.920324
   14       -9.920324
   15       -9.919748
   16       -9.919748
   17       -9.901992
   18       -9.901992
   19       -9.898911
   20       -9.898911
   21       -6.634843
   22       -6.634843
   23       -5.752060
   24       -5.752060
   25       -1.294197
   26       -1.294197
   27        0.029880
   28        0.029880
   29        1.047186
   30        1.047186
   31        2.267460
   32        2.267460
   33        2.311429
   34        2.311429
   35        3.175292
   36        3.175292
   37        6.967868
   38        6.967868
   39        7.366128
   40        7.366128
   41        7.445778
   42        7.445778
   43        8.868879
   44        8.868879
   45        9.244811
   46        9.244811
   47        9.322457
   48        9.322457
 
  0.5000000E+00  0.5000000E+00  0.0000000E+00  0.4687500E-01
    1      -10.161467
    2      -10.161467
    3      -10.161467
    4      -10.161467
    5       -9.999806
    6       -9.999806
    7       -9.999806
    8       -9.999806
    9       -9.995968
   10       -9.995968
   11       -9.995968
   12       -9.995968
   13       -9.910438
   14       -9.910438
   15       -9.910438
   16       -9.910438
   17       -9.906452
   18       -9.906452
   19       -9.906452
   20       -9.906452
   21       -6.217344
   22       -6.217344
   23       -6.217344
   24       -6.217344
   25       -0.748937
   26       -0.748937
   27       -0.748937
   28       -0.748937
   29        1.435721
   30        1.435721
   31        1.435721
   32        1.435721
   33        3.232890
   34        3.232890
   35        3.232890
   36        3.232890
   37        6.750759
   38        6.750759
   39        6.750759
   40        6.750759
   41        9.161763
   42        9.161763
   43        9.161763
   44        9.161763
   45        9.480656
   46        9.480657
   47        9.480658
   48        9.480660
 
  0.2500000E+00  0.2500000E+00  0.2500000E+00  0.1250000E+00
    1      -10.187644
    2      -10.187644
    3      -10.187644
    4      -10.105142
    5      -10.018966
    6      -10.018966
    7       -9.988140
    8       -9.988140
    9       -9.988140
   10       -9.979293
   11       -9.979293
   12       -9.979293
   13       -9.924612
   14       -9.924612
   15       -9.924612
   16       -9.907252
   17       -9.907252
   18       -9.895347
   19       -9.895347
   20       -9.895347
   21       -6.995438
   22       -5.904547
   23       -5.904547
   24       -5.904547
   25       -1.229462
   26       -1.229462
   27       -1.229462
   28        0.518628
   29        1.524471
   30        1.524471
   31        1.524471
   32        2.523058
   33        2.523058
   34        2.523058
   35        3.706421
   36        3.706421
   37        5.368906
   38        6.442682
   39        6.442682
   40        6.442682
   41        8.398598
   42        8.398598
   43        8.398598
   44        8.816711
   45        8.816711
   46        9.297694
   47       10.049563
   48       10.049563
 
  0.5000000E+00  0.2500000E+00  0.2500000E+00  0.1875000E+00
    1      -10.181084
    2      -10.181084
    3      -10.147828
    4      -10.147828
    5      -10.006578
    6      -10.006578
    7      -10.001556
    8      -10.001556
    9       -9.997413
   10       -9.997413
   11       -9.983837
   12       -9.983837
   13       -9.914509
   14       -9.914509
   15       -9.914042
   16       -9.914042
   17       -9.901146
   18       -9.901146
   19       -9.899004
   20       -9.899004
   21       -6.500145
   22       -6.500145
   23       -5.867192
   24       -5.867192
   25       -1.395068
   26       -1.395068
   27       -0.523830
   28       -0.523830
   29        1.521280
   30        1.521280
   31        2.627787
   32        2.627787
   33        2.765905
   34        2.765905
   35        3.053785
   36        3.053785
   37        6.189326
   38        6.189326
   39        6.957306
   40        6.957306
   41        8.238384
   42        8.238384
   43        8.251136
   44        8.251136
   45        9.626521
   46        9.626521
   47        9.837434
   48        9.837474
 
  0.5000000E+00  0.5000000E+00  0.2500000E+00  0.9375000E-01
    1      -10.163149
    2      -10.163149
    3      -10.163149
    4      -10.163149
    5      -10.002860
    6      -10.002860
    7      -10.002860
    8      -10.002860
    9      -10.001040
   10      -10.001040
   11      -10.001040
   12      -10.001040
   13       -9.905295
   14       -9.905295
   15       -9.905295
   16       -9.905295
   17       -9.903454
   18       -9.903454
   19       -9.903454
   20       -9.903454
   21       -6.175532
   22       -6.175532
   23       -6.175532
   24       -6.175532
   25       -1.202604
   26       -1.202604
   27       -1.202604
   28       -1.202604
   29        2.277381
   30        2.277381
   31        2.277381
   32        2.277381
   33        3.260208
   34        3.260208
   35        3.260208
   36        3.260208
   37        6.061925
   38        6.061925
   39        6.061925
   40        6.061925
   41        8.647299
   42        8.647299
   43        8.647299
   44        8.647299
   45        9.212331
   46        9.212331
   47        9.212331
   48        9.212331
 
  0.5000000E+00  0.5000000E+00  0.5000000E+00  0.1562500E-01
    1      -10.164800
    2      -10.164800
    3      -10.164800
    4      -10.164800
    5      -10.005646
    6      -10.005646
    7      -10.005646
    8      -10.005646
    9      -10.005646
   10      -10.005646
   11      -10.005646
   12      -10.005646
   13       -9.900609
   14       -9.900609
   15       -9.900609
   16       -9.900609
   17       -9.900609
   18       -9.900609
   19       -9.900609
   20       -9.900609
   21       -6.131850
   22       -6.131850
   23       -6.131850
   24       -6.131850
   25       -1.530132
   26       -1.530132
   27       -1.530132
   28       -1.530132
   29        3.288303
   30        3.288303
   31        3.288303
   32        3.288303
   33        3.288303
   34        3.288303
   35        3.288303
   36        3.288303
   37        5.074994
   38        5.074994
   39        5.074994
   40        5.074994
   41        8.884766
   42        8.884766
   43        8.884766
   44        8.884766
   45        8.884766
   46        8.884766
   47        8.884766
   48        8.884766
