unknown system                          
   1.00000000000000     
     0.000000    2.826625    2.826625
     2.826625    0.000000    2.826625
     2.826625    2.826625    0.000000
   Ga   As
     1     1
Direct
  0.000000  0.000000  0.000000
  0.250000  0.250000  0.250000
 
   28   28   28
 -.23703901816E+01 -.13855149544E+01 0.12323693688E+01 0.46361548335E+01 0.78468071391E+01
 0.10120681011E+02 0.11141921193E+02 0.11023832081E+02 0.10188009104E+02 0.91839623561E+01
 0.84104720499E+01 0.78698170193E+01 0.75042472240E+01 0.72861555826E+01 0.72123889626E+01
 0.72853832938E+01 0.75029653358E+01 0.78685985919E+01 0.84099879381E+01 0.91845014946E+01
 0.10189218908E+02 0.11025028647E+02 0.11142662333E+02 0.10120978157E+02 0.78468554626E+01
 0.46360498719E+01 0.12321505663E+01 -.13857089573E+01 -.13855149544E+01 0.32966572013E+00
 0.32648877913E+01 0.66183911991E+01 0.95640650035E+01 0.11506202930E+02 0.12234808064E+02
 0.11951805172E+02 0.11157945647E+02 0.10409877449E+02 0.98896960910E+01 0.95346943832E+01
 0.93029922678E+01 0.91846302279E+01 0.91842572621E+01 0.93017296908E+01 0.95325384878E+01
 0.98873843073E+01 0.10408604754E+02 0.11158317166E+02 0.11953250816E+02 0.12236199084E+02
 0.11506972364E+02 0.95645878204E+01 0.66193369518E+01 0.32663820766E+01 0.33111366677E+00
 -.13849131367E+01 0.12323693688E+01 0.32648877878E+01 0.61104855592E+01 0.90943645561E+01
 0.11538309157E+02 0.12979576753E+02 0.13341633720E+02 0.12954889940E+02 0.12380358908E+02
 0.11987397236E+02 0.11742780202E+02 0.11585358187E+02 0.11489637772E+02 0.11456503704E+02
 0.11489624757E+02 0.11584073765E+02 0.11739639891E+02 0.11983759074E+02 0.12378389610E+02
 0.12955392172E+02 0.13343433990E+02 0.12981027685E+02 0.11538961766E+02 0.90950008176E+01
 0.61118521177E+01 0.32667470967E+01 0.12337235824E+01 0.49714361613E+00 0.46361548335E+01
 0.66183911914E+01 0.90943645504E+01 0.11507586224E+02 0.13312753125E+02 0.14213216053E+02
 0.14316654570E+02 0.14071366252E+02 0.13931818310E+02 0.13925460237E+02 0.13966614085E+02
 0.14002921006E+02 0.14020162550E+02 0.14021044423E+02 0.14003864378E+02 0.13964743814E+02
 0.13920551419E+02 0.13926885759E+02 0.14069455747E+02 0.14317910920E+02 0.14215444858E+02
 0.13314127655E+02 0.11508062612E+02 0.90947836558E+01 0.66191202795E+01 0.46368792368E+01
 0.35481997783E+01 0.35479048645E+01 0.78468071391E+01 0.95640649936E+01 0.11538309148E+02
 0.13312753121E+02 0.14507829844E+02 0.15048463675E+02 0.15220544212E+02 0.15447578540E+02
 0.15805976765E+02 0.16184803968E+02 0.16492876200E+02 0.16684597039E+02 0.16749587209E+02
 0.16687540250E+02 0.16494341923E+02 0.16181259620E+02 0.15798906796E+02 0.15441744945E+02
 0.15219021215E+02 0.15050351667E+02 0.14510362875E+02 0.13314286845E+02 0.11538887706E+02
 0.95641855836E+01 0.78466887323E+01 0.67171291548E+01 0.63285458058E+01 0.67173088334E+01
 0.10120681011E+02 0.11506202921E+02 0.12979576744E+02 0.14213216048E+02 0.15048463673E+02
 0.15628154089E+02 0.16282131429E+02 0.17089628888E+02 0.17920727292E+02 0.18637766133E+02
 0.19118621942E+02 0.19338541056E+02 0.19341718392E+02 0.19124499553E+02 0.18639363929E+02
 0.17915094765E+02 0.17080438790E+02 0.16275417823E+02 0.15626703285E+02 0.15050635356E+02
 0.14215949972E+02 0.12981256498E+02 0.11506876445E+02 0.10120863381E+02 0.91052512159E+01
 0.85877415837E+01 0.85877621636E+01 0.91052485397E+01 0.11141921193E+02 0.12234808058E+02
 0.13341633714E+02 0.14316654566E+02 0.15220544210E+02 0.16282131428E+02 0.17546713514E+02
 0.18878684685E+02 0.20083784621E+02 0.20914119171E+02 0.21333790149E+02 0.21456286239E+02
 0.21342344270E+02 0.20923242992E+02 0.20085234360E+02 0.18871281462E+02 0.17536238173E+02
 0.16275156602E+02 0.15219162789E+02 0.14318581281E+02 0.13343816188E+02 0.12236045782E+02
 0.11142628855E+02 0.10270374706E+02 0.97399273147E+01 0.95666550981E+01 0.97393947288E+01
 0.10269687074E+02 0.11023832081E+02 0.11951805169E+02 0.12954889936E+02 0.14071366248E+02
 0.15447578533E+02 0.17089628878E+02 0.18878684673E+02 0.20590696043E+02 0.21847041702E+02
 0.22532823185E+02 0.22800408415E+02 0.22806636734E+02 0.22546653292E+02 0.21858152818E+02
 0.20591928558E+02 0.18871024617E+02 0.17079733245E+02 0.15441390484E+02 0.14070089979E+02
 0.12956070483E+02 0.11952931253E+02 0.11024370836E+02 0.10253129852E+02 0.97279155129E+01
 0.94728720714E+01 0.94724494052E+01 0.97270833390E+01 0.10252528326E+02 0.10188009104E+02
 0.11157945645E+02 0.12380358902E+02 0.13931818298E+02 0.15805976743E+02 0.17920727257E+02
 0.20083784577E+02 0.21847041664E+02 0.22925529411E+02 0.23420189071E+02 0.23555110941E+02
 0.23431701662E+02 0.22941464335E+02 0.21858210846E+02 0.20085179717E+02 0.17914298534E+02
 0.15797942108E+02 0.13927200503E+02 0.12379708379E+02 0.11158742205E+02 0.10188275395E+02
 0.94218074511E+01 0.88734389387E+01 0.85541479847E+01 0.84509677021E+01 0.85535468605E+01
 0.88730830473E+01 0.94219132981E+01 0.91839623561E+01 0.10409877446E+02 0.11987397225E+02
 0.13925460211E+02 0.16184803917E+02 0.18637766054E+02 0.20914119069E+02 0.22532823082E+02
 0.23420189003E+02 0.23773472649E+02 0.23778268583E+02 0.23432505622E+02 0.22547093171E+02
 0.20923762883E+02 0.18639215721E+02 0.16179992746E+02 0.13919825207E+02 0.11984903035E+02
 0.10410243288E+02 0.91846777931E+01 0.82783294383E+01 0.76422095101E+01 0.72424821259E+01
 0.70522613608E+01 0.70519444695E+01 0.72421038767E+01 0.76423936071E+01 0.82784498308E+01
 0.84104720499E+01 0.98896960859E+01 0.11742780181E+02 0.13966614036E+02 0.16492876109E+02
 0.19118621804E+02 0.21333789972E+02 0.22800408229E+02 0.23555110785E+02 0.23778268494E+02
 0.23560208243E+02 0.22809790883E+02 0.21344457263E+02 0.19125956228E+02 0.16494101623E+02
 0.13963368387E+02 0.11739326675E+02 0.98886825671E+01 0.84112299234E+01 0.72833201367E+01
 0.64754120249E+01 0.59497056744E+01 0.56601869606E+01 0.55682964025E+01 0.56598751545E+01
 0.59495351031E+01 0.64752600530E+01 0.72826106771E+01 0.78698170193E+01 0.95346943753E+01
 0.11585358156E+02 0.14002920931E+02 0.16684596904E+02 0.19338540855E+02 0.21456285987E+02
 0.22806636466E+02 0.23431701419E+02 0.23432505444E+02 0.22809790794E+02 0.21462437992E+02
 0.19345916524E+02 0.16689660503E+02 0.14003653085E+02 0.11583127803E+02 0.95324847859E+01
 0.78692357232E+01 0.65718230217E+01 0.56095834472E+01 0.49473979617E+01 0.45431329043E+01
 0.43544924391E+01 0.43543760852E+01 0.45428799241E+01 0.49470378198E+01 0.56089737429E+01
 0.65712823813E+01 0.75042472240E+01 0.93029922568E+01 0.11489637729E+02 0.14020162451E+02
 0.16749587035E+02 0.19341718141E+02 0.21342343962E+02 0.22546652962E+02 0.22941464029E+02
 0.22547092929E+02 0.21344457108E+02 0.19345916459E+02 0.16754221471E+02 0.14022876004E+02
 0.11489648093E+02 0.93015365965E+01 0.75029677991E+01 0.60809652301E+01 0.50037590470E+01
 0.42351985319E+01 0.37342597300E+01 0.34573302855E+01 0.33694004188E+01 0.34570846721E+01
 0.37339996336E+01 0.42350591285E+01 0.50037945338E+01 0.60814739713E+01 0.72861555826E+01
 0.91846302139E+01 0.11456503651E+02 0.14021044305E+02 0.16687540051E+02 0.19124499275E+02
 0.20923242656E+02 0.21858152463E+02 0.21858210516E+02 0.20923762618E+02 0.19125956052E+02
 0.16689660415E+02 0.14022875979E+02 0.11457354876E+02 0.91846280932E+01 0.72858132832E+01
 0.57669996876E+01 0.46005267605E+01 0.37487754129E+01 0.31698651646E+01 0.28189937649E+01
 0.26556785071E+01 0.26555324643E+01 0.28187928768E+01 0.31699845573E+01 0.37492318233E+01
 0.46010443728E+01 0.57674303799E+01 0.72123889626E+01 0.91842572451E+01 0.11489624697E+02
 0.14003864251E+02 0.16494341717E+02 0.18639363650E+02 0.20085234032E+02 0.20591928217E+02
 0.20085179407E+02 0.18639215480E+02 0.16494101471E+02 0.14003653018E+02 0.11489648082E+02
 0.91846281023E+01 0.72129621040E+01 0.56116250010E+01 0.43668794394E+01 0.34433760804E+01
 0.27978538918E+01 0.23839495634E+01 0.21575910980E+01 0.20861417299E+01 0.21575462841E+01
 0.23840284752E+01 0.27981258242E+01 0.34436391244E+01 0.43668320107E+01 0.56111909307E+01
 0.72853832938E+01 0.93017296715E+01 0.11584073702E+02 0.13964743688E+02 0.16181259425E+02
 0.17915094509E+02 0.18871281169E+02 0.18871024324E+02 0.17914298282E+02 0.16179992567E+02
 0.13963368293E+02 0.11583127783E+02 0.93015366205E+01 0.72858133176E+01 0.56116250224E+01
 0.42898079253E+01 0.32950369088E+01 0.25853282282E+01 0.21126823885E+01 0.18302502853E+01
 0.16998861255E+01 0.16999169801E+01 0.18303110318E+01 0.21127060925E+01 0.25852460876E+01
 0.32947714692E+01 0.42893051417E+01 0.56109866508E+01 0.75029653358E+01 0.95325384677E+01
 0.11739639831E+02 0.13920551304E+02 0.15798906624E+02 0.17080438574E+02 0.17536237936E+02
 0.17079733022E+02 0.15797941932E+02 0.13919825103E+02 0.11739326646E+02 0.95324848151E+01
 0.75029678568E+01 0.57669997454E+01 0.43668794799E+01 0.32950369272E+01 0.25159626918E+01
 0.19819984552E+01 0.16442110467E+01 0.14606036504E+01 0.14027685791E+01 0.14606217303E+01
 0.16441856716E+01 0.19818716889E+01 0.25157543755E+01 0.32948453157E+01 0.43667867733E+01
 0.57669859819E+01 0.78685985919E+01 0.98873842885E+01 0.11983759020E+02 0.13926885662E+02
 0.15441744804E+02 0.16275417652E+02 0.16275156423E+02 0.15441390328E+02 0.13927200397E+02
 0.11984902994E+02 0.98886825872E+01 0.78692357850E+01 0.60809653073E+01 0.46005268307E+01
 0.34433761313E+01 0.25853282577E+01 0.19819984672E+01 0.15837451670E+01 0.13460012405E+01
 0.12358406154E+01 0.12358533259E+01 0.13460077874E+01 0.15836956008E+01 0.19819331785E+01
 0.25854300199E+01 0.34438061967E+01 0.46011199142E+01 0.60811770883E+01 0.84099879381E+01
 0.10408604738E+02 0.12378389565E+02 0.14069455665E+02 0.15219021100E+02 0.15626703149E+02
 0.15219162653E+02 0.14070089871E+02 0.12379708318E+02 0.10410243283E+02 0.84112299671E+01
 0.65718230952E+01 0.50037591283E+01 0.37487754846E+01 0.27978539451E+01 0.21126824225E+01
 0.16442110652E+01 0.13460012481E+01 0.11819743892E+01 0.11298095760E+01 0.11819834872E+01
 0.13459868547E+01 0.16442004191E+01 0.21128179995E+01 0.27982788493E+01 0.37493946591E+01
 0.50041389522E+01 0.65714519040E+01 0.91845014946E+01 0.11158317152E+02 0.12955392132E+02
 0.14317910847E+02 0.15050351564E+02 0.15050635236E+02 0.14318581165E+02 0.12956070395E+02
 0.11158742162E+02 0.91846778002E+01 0.72833201848E+01 0.56095835188E+01 0.42351986080E+01
 0.31698652312E+01 0.23839496141E+01 0.18302503202E+01 0.14606036727E+01 0.12358406287E+01
 0.11298095824E+01 0.11297718810E+01 0.12357692740E+01 0.14605833442E+01 0.18303229908E+01
 0.23840669526E+01 0.31699354100E+01 0.42351830777E+01 0.56095242594E+01 0.72832457623E+01
 0.10189218908E+02 0.11953250802E+02 0.13343433949E+02 0.14215444783E+02 0.14510362768E+02
 0.14215949850E+02 0.13343816074E+02 0.11952931169E+02 0.10188275355E+02 0.82783294461E+01
 0.64754120702E+01 0.49473980271E+01 0.37342597981E+01 0.28189938243E+01 0.21575911445E+01
 0.16998861603E+01 0.14027686050E+01 0.12358533451E+01 0.11819835006E+01 0.12357692812E+01
 0.14027082712E+01 0.16999041836E+01 0.21575698072E+01 0.28187554520E+01 0.37338412152E+01
 0.49471626214E+01 0.64757669777E+01 0.82792592962E+01 0.11025028647E+02 0.12236199067E+02
 0.12981027636E+02 0.13314127567E+02 0.13314286725E+02 0.12981256364E+02 0.12236045660E+02
 0.11024370749E+02 0.94218074129E+01 0.76422095196E+01 0.59497057185E+01 0.45431329643E+01
 0.34573303456E+01 0.26556785591E+01 0.20861417724E+01 0.16999170153E+01 0.14606217605E+01
 0.13460078132E+01 0.13459868755E+01 0.14605833591E+01 0.16999041915E+01 0.20861476625E+01
 0.26556167104E+01 0.34571273121E+01 0.45428894913E+01 0.59497114699E+01 0.76426874447E+01
 0.94226108125E+01 0.11142662333E+02 0.11506972343E+02 0.11538961707E+02 0.11508062511E+02
 0.11538887572E+02 0.11506876302E+02 0.11142628731E+02 0.10253129769E+02 0.88734389080E+01
 0.72424821416E+01 0.56601870058E+01 0.43544924944E+01 0.33694004710E+01 0.26555325090E+01
 0.21575463230E+01 0.18303110681E+01 0.16441857061E+01 0.15836956326E+01 0.16442004464E+01
 0.18303230124E+01 0.21575698224E+01 0.26556167184E+01 0.33695544343E+01 0.43546337265E+01
 0.56602064973E+01 0.72423611521E+01 0.88732752015E+01 0.10253045125E+02 0.10120978157E+02
 0.95645877950E+01 0.90950007529E+01 0.90947835494E+01 0.95641854486E+01 0.10120863242E+02
 0.10270374592E+02 0.97279154438E+01 0.85541479666E+01 0.70522613835E+01 0.55682964470E+01
 0.43543761337E+01 0.34570847150E+01 0.28187929140E+01 0.23840285106E+01 0.21127061288E+01
 0.19818717256E+01 0.19819332131E+01 0.21128180297E+01 0.23840669776E+01 0.28187554720E+01
 0.34571273263E+01 0.43546337338E+01 0.55686672407E+01 0.70524287935E+01 0.85538873483E+01
 0.97273848349E+01 0.10270020309E+02 0.78468554626E+01 0.66193369268E+01 0.61118520563E+01
 0.66191201814E+01 0.78466886115E+01 0.91052510964E+01 0.97399272217E+01 0.94728720212E+01
 0.84509676958E+01 0.70519444947E+01 0.56598751929E+01 0.45428799618E+01 0.37339996657E+01
 0.31699845865E+01 0.27981258547E+01 0.25852461209E+01 0.25157544094E+01 0.25854300511E+01
 0.27982788762E+01 0.31699354330E+01 0.37338412353E+01 0.45428895079E+01 0.56602065083E+01
 0.70524287977E+01 0.84512584687E+01 0.94728020869E+01 0.97396814353E+01 0.91051566994E+01
 0.46360498719E+01 0.32663820566E+01 0.32667470480E+01 0.46368791602E+01 0.67171290623E+01
 0.85877414952E+01 0.95666550330E+01 0.94724493741E+01 0.85535468611E+01 0.72421038973E+01
 0.59495351298E+01 0.49470378439E+01 0.42350591491E+01 0.37492318436E+01 0.34436391473E+01
 0.32947714943E+01 0.32948453401E+01 0.34438062178E+01 0.37493946766E+01 0.42351830934E+01
 0.49471626365E+01 0.59497114832E+01 0.72423611607E+01 0.85538873507E+01 0.94728020855E+01
 0.95668152136E+01 0.85874617598E+01 0.67163880476E+01 0.12321505663E+01 0.33111365470E+00
 0.12337235522E+01 0.35481997307E+01 0.63285457490E+01 0.85877621108E+01 0.97393946918E+01
 0.97270833231E+01 0.88730830494E+01 0.76423936187E+01 0.64752600663E+01 0.56089737540E+01
 0.50037945435E+01 0.46010443834E+01 0.43668320230E+01 0.42893051543E+01 0.43667867838E+01
 0.46011199218E+01 0.50041389580E+01 0.56095242653E+01 0.64757669843E+01 0.76426874500E+01
 0.88732752026E+01 0.97273848308E+01 0.97396814285E+01 0.85874617549E+01 0.63271877454E+01
 0.35461406570E+01 -.13857089573E+01 -.13849131411E+01 0.49714360404E+00 0.35479048449E+01
 0.67173088101E+01 0.91052485186E+01 0.10269687059E+02 0.10252528320E+02 0.94219132988E+01
 0.82784498342E+01 0.72826106803E+01 0.65712823835E+01 0.60814739731E+01 0.57674303819E+01
 0.56111909326E+01 0.56109866518E+01 0.57669859812E+01 0.60811770861E+01 0.65714519017E+01
 0.72832457610E+01 0.82792592956E+01 0.94226108107E+01 0.10253045120E+02 0.10270020301E+02
 0.91051566901E+01 0.67163880403E+01 0.35461406536E+01 0.49529941835E+00 -.13855149544E+01
 0.32966572013E+00 0.32648877878E+01 0.66183911914E+01 0.95640649936E+01 0.11506202921E+02
 0.12234808058E+02 0.11951805169E+02 0.11157945645E+02 0.10409877446E+02 0.98896960859E+01
 0.95346943753E+01 0.93029922568E+01 0.91846302139E+01 0.91842572451E+01 0.93017296715E+01
 0.95325384677E+01 0.98873842885E+01 0.10408604738E+02 0.11158317152E+02 0.11953250802E+02
 0.12236199067E+02 0.11506972343E+02 0.95645877950E+01 0.66193369268E+01 0.32663820566E+01
 0.33111365470E+00 -.13849131411E+01 0.32966572013E+00 0.25209331443E+01 0.55967161134E+01
 0.88387579724E+01 0.11523050052E+02 0.13149951078E+02 0.13624517904E+02 0.13281243771E+02
 0.12703585958E+02 0.12301237605E+02 0.12051549295E+02 0.11891171447E+02 0.11793573223E+02
 0.11759841760E+02 0.11793925666E+02 0.11890460348E+02 0.12048809627E+02 0.12297391391E+02
 0.12700715356E+02 0.13280602407E+02 0.13625571088E+02 0.13151351702E+02 0.11524192395E+02
 0.88401383399E+01 0.55989284575E+01 0.25236176574E+01 0.33156526255E+00 -.46197952145E+00
 0.32648877913E+01 0.55967161134E+01 0.85221017709E+01 0.11404331067E+02 0.13616008648E+02
 0.14801185787E+02 0.15050672897E+02 0.14840344624E+02 0.14695794724E+02 0.14692666252E+02
 0.14740243501E+02 0.14781852956E+02 0.14801939445E+02 0.14803679783E+02 0.14785248837E+02
 0.14741665109E+02 0.14690235024E+02 0.14690964384E+02 0.14836184799E+02 0.15049037477E+02
 0.14801674578E+02 0.13617236392E+02 0.11405592983E+02 0.85236447412E+01 0.55987620001E+01
 0.32668525038E+01 0.19875655865E+01 0.19867355649E+01 0.66183911991E+01 0.88387579724E+01
 0.11404331066E+02 0.13750817430E+02 0.15398255913E+02 0.16217203915E+02 0.16505319448E+02
 0.16765405482E+02 0.17164941810E+02 0.17586806722E+02 0.17928496044E+02 0.18135248036E+02
 0.18201863480E+02 0.18141009352E+02 0.17935246525E+02 0.17589409497E+02 0.17162158990E+02
 0.16760064518E+02 0.16501057219E+02 0.16215574828E+02 0.15398582943E+02 0.13751818535E+02
 0.11405314557E+02 0.88396038968E+01 0.66190729830E+01 0.51569746291E+01 0.46525913764E+01
 0.51565771637E+01 0.95640650035E+01 0.11523050052E+02 0.13616008645E+02 0.15398255912E+02
 0.16623726652E+02 0.17418293224E+02 0.18180559630E+02 0.19106511256E+02 0.20058358444E+02
 0.20840464156E+02 0.21290073990E+02 0.21462994147E+02 0.21466912748E+02 0.21299040873E+02
 0.20848410344E+02 0.20060700226E+02 0.19103160644E+02 0.18175005542E+02 0.17414243500E+02
 0.16622548297E+02 0.15398986950E+02 0.13617055960E+02 0.11523587872E+02 0.95641554888E+01
 0.81203508538E+01 0.73777186051E+01 0.73777352361E+01 0.81203875836E+01 0.11506202930E+02
 0.13149951078E+02 0.14801185784E+02 0.16217203913E+02 0.17418293223E+02 0.18684985825E+02
 0.20180446308E+02 0.21747974524E+02 0.23018657280E+02 0.23708966831E+02 0.23941272148E+02
 0.23980760572E+02 0.23949820337E+02 0.23720900381E+02 0.23027213645E+02 0.21749315270E+02
 0.20175769833E+02 0.18678800315E+02 0.17414551994E+02 0.16216717034E+02 0.14802262657E+02
 0.13150863132E+02 0.11506606720E+02 0.10179524186E+02 0.93584522117E+01 0.90865300742E+01
 0.93581434236E+01 0.10179204554E+02 0.12234808064E+02 0.13624517904E+02 0.15050672894E+02
 0.16505319446E+02 0.18180559629E+02 0.20180446307E+02 0.22346530830E+02 0.24162576911E+02
 0.25153513062E+02 0.25425650001E+02 0.25399805027E+02 0.25405681566E+02 0.25439951509E+02
 0.25168473442E+02 0.24171072201E+02 0.22346360129E+02 0.20174753356E+02 0.18174520069E+02
 0.16502167026E+02 0.15050315091E+02 0.13625229134E+02 0.12235482648E+02 0.11045174800E+02
 0.10213548552E+02 0.98006252432E+01 0.98003132354E+01 0.10212894970E+02 0.11044552398E+02
 0.11951805172E+02 0.13281243771E+02 0.14840344621E+02 0.16765405478E+02 0.19106511249E+02
 0.21747974513E+02 0.24162576899E+02 0.25624167005E+02 0.26066590741E+02 0.25963244007E+02
 0.25857475588E+02 0.25974114559E+02 0.26083705358E+02 0.25640098847E+02 0.24170942957E+02
 0.21747356553E+02 0.19100885378E+02 0.16760259898E+02 0.14838196696E+02 0.13281001405E+02
 0.11951735617E+02 0.10837348427E+02 0.10005032123E+02 0.95047816850E+01 0.93400955512E+01
 0.95039917224E+01 0.10004452287E+02 0.10837382332E+02 0.11157945647E+02 0.12703585958E+02
 0.14695794719E+02 0.17164941798E+02 0.20058358421E+02 0.23018657244E+02 0.25153513016E+02
 0.26066590703E+02 0.26086587250E+02 0.25862485264E+02 0.25865929657E+02 0.26096987485E+02
 0.26082146372E+02 0.25168473406E+02 0.23026473641E+02 0.20057575183E+02 0.17160257231E+02
 0.14692642776E+02 0.12703010216E+02 0.11157734246E+02 0.99695804547E+01 0.90898116686E+01
 0.85118888606E+01 0.82282273809E+01 0.82276147489E+01 0.85110917072E+01 0.90901630065E+01
 0.99704619948E+01 0.10409877449E+02 0.12301237605E+02 0.14692666242E+02 0.17586806694E+02
 0.20840464102E+02 0.23708966747E+02 0.25425649893E+02 0.25963243900E+02 0.25862485192E+02
 0.25741976240E+02 0.25864127956E+02 0.25969611616E+02 0.25437255884E+02 0.23720841759E+02
 0.20846616768E+02 0.17586347207E+02 0.14689807807E+02 0.12299875333E+02 0.10410108710E+02
 0.89745774993E+01 0.79420341675E+01 0.72523896105E+01 0.68584454872E+01 0.67304726252E+01
 0.68580642345E+01 0.72524015333E+01 0.79424029195E+01 0.89744684132E+01 0.98896960910E+01
 0.12051549295E+02 0.14740243483E+02 0.17928495993E+02 0.21290073892E+02 0.23941271999E+02
 0.25399804839E+02 0.25857475390E+02 0.25865929490E+02 0.25864127858E+02 0.25855193688E+02
 0.25402406319E+02 0.23949496905E+02 0.21298930234E+02 0.17932825601E+02 0.14739723283E+02
 0.12049659918E+02 0.98891687840E+01 0.82170131130E+01 0.69798627823E+01 0.61247656145E+01
 0.55969944073E+01 0.53475986083E+01 0.53476032210E+01 0.55970210411E+01 0.61246160978E+01
 0.69792104743E+01 0.82163048840E+01 0.95346943832E+01 0.11891171447E+02 0.14781852929E+02
 0.18135247959E+02 0.21462994001E+02 0.23980760355E+02 0.25405681294E+02 0.25974114267E+02
 0.26096987216E+02 0.25969611416E+02 0.25402406217E+02 0.23983345106E+02 0.21469844892E+02
 0.18140979602E+02 0.14783396143E+02 0.11889986782E+02 0.95336313411E+01 0.76862630965E+01
 0.62924150585E+01 0.52967264000E+01 0.46434463406E+01 0.42784307782E+01 0.41614580682E+01
 0.42780487322E+01 0.46431391805E+01 0.52965595808E+01 0.62921373923E+01 0.76862894980E+01
 0.93029922678E+01 0.11793573223E+02 0.14801939408E+02 0.18201863378E+02 0.21466912561E+02
 0.23949820064E+02 0.25439951170E+02 0.26083704989E+02 0.26082146024E+02 0.25437255605E+02
 0.23949496727E+02 0.21469844818E+02 0.18205609620E+02 0.14803868131E+02 0.11793476281E+02
 0.93022940852E+01 0.73278583933E+01 0.58183216908E+01 0.47153824229E+01 0.39623145882E+01
 0.35024542430E+01 0.32866283950E+01 0.32863024965E+01 0.35019538948E+01 0.39623304539E+01
 0.47158373671E+01 0.58187495119E+01 0.73283213551E+01 0.91846302279E+01 0.11759841760E+02
 0.14803679739E+02 0.18141009233E+02 0.21299040660E+02 0.23720900076E+02 0.25168473065E+02
 0.25640098439E+02 0.25168473021E+02 0.23720841450E+02 0.21298930031E+02 0.18140979504E+02
 0.14803868104E+02 0.11760205897E+02 0.91849282532E+01 0.71150567632E+01 0.55152511391E+01
 0.43283181823E+01 0.34954696631E+01 0.29585021848E+01 0.26631932082E+01 0.25696322214E+01
 0.26631190561E+01 0.29585233295E+01 0.34957297444E+01 0.43287466281E+01 0.55155849514E+01
 0.71150668688E+01 0.91842572621E+01 0.11793925666E+02 0.14785248789E+02 0.17935246399E+02
 0.20848410125E+02 0.23027213335E+02 0.24171071826E+02 0.24170942559E+02 0.23026473276E+02
 0.20846616486E+02 0.17932825427E+02 0.14783396069E+02 0.11793476269E+02 0.91849282624E+01
 0.70437606195E+01 0.53654254804E+01 0.41040966397E+01 0.32019127245E+01 0.25990173110E+01
 0.22378946911E+01 0.20710413185E+01 0.20711019798E+01 0.22380138885E+01 0.25991142767E+01
 0.32019774511E+01 0.41040346244E+01 0.53649827539E+01 0.70429004682E+01 0.93017296908E+01
 0.11890460348E+02 0.14741665060E+02 0.17589409376E+02 0.20060700019E+02 0.21749314985E+02
 0.22346359792E+02 0.21747356210E+02 0.20057574887E+02 0.17586346999E+02 0.14739723177E+02
 0.11889986760E+02 0.93022941094E+01 0.71150567965E+01 0.53654255002E+01 0.40303035287E+01
 0.30593800155E+01 0.23933024672E+01 0.19725727766E+01 0.17448254831E+01 0.16733701489E+01
 0.17448805586E+01 0.19725895809E+01 0.23932149941E+01 0.30591802152E+01 0.40299341197E+01
 0.53647740767E+01 0.71141998843E+01 0.95325384878E+01 0.12048809627E+02 0.14690234980E+02
 0.17162158881E+02 0.19103160464E+02 0.20175769593E+02 0.20174753085E+02 0.19100885118E+02
 0.17160257028E+02 0.14689807688E+02 0.12049659886E+02 0.95336313704E+01 0.73278584499E+01
 0.55152511935E+01 0.41040966761E+01 0.30593800315E+01 0.23262337250E+01 0.18448091873E+01
 0.15600376872E+01 0.14293861027E+01 0.14294423310E+01 0.15601003413E+01 0.18447201807E+01
 0.23260453911E+01 0.30593354045E+01 0.41042782589E+01 0.55153233952E+01 0.73273389953E+01
 0.98873843073E+01 0.12297391391E+02 0.14690964345E+02 0.16760064425E+02 0.18175005394E+02
 0.18678800126E+02 0.18174519866E+02 0.16760259720E+02 0.14692642656E+02 0.12299875287E+02
 0.98891688042E+01 0.76862631583E+01 0.58183217652E+01 0.43283182473E+01 0.32019127701E+01
 0.23933024931E+01 0.18448091979E+01 0.15001907198E+01 0.13134416597E+01 0.12546368840E+01
 0.13134295598E+01 0.15001872406E+01 0.18448110799E+01 0.23933778927E+01 0.32022954222E+01
 0.43291252887E+01 0.58190697718E+01 0.76859837261E+01 0.10408604754E+02 0.12700715356E+02
 0.14836184766E+02 0.16501057141E+02 0.17414243379E+02 0.17414551844E+02 0.16502166875E+02
 0.14838196575E+02 0.12703010150E+02 0.10410108705E+02 0.82170131581E+01 0.62924151319E+01
 0.47153825013E+01 0.34954697301E+01 0.25990173599E+01 0.19725728080E+01 0.15600377049E+01
 0.13134416675E+01 0.11987888461E+01 0.11987264126E+01 0.13133583720E+01 0.15600684562E+01
 0.19726823596E+01 0.25991664257E+01 0.34958411511E+01 0.47161222954E+01 0.62931251197E+01
 0.82168439409E+01 0.11158317166E+02 0.13280602407E+02 0.15049037446E+02 0.16215574758E+02
 0.16622548189E+02 0.16216716903E+02 0.15050314964E+02 0.13281001310E+02 0.11157734201E+02
 0.89745775075E+01 0.69798628328E+01 0.52967264728E+01 0.39623146636E+01 0.29585022498E+01
 0.22378947408E+01 0.17448255182E+01 0.14293861263E+01 0.12546368989E+01 0.11987264201E+01
 0.12545632100E+01 0.14293418443E+01 0.17448686089E+01 0.22379128570E+01 0.29583062046E+01
 0.39619225374E+01 0.52965038757E+01 0.69802164822E+01 0.89754105050E+01 0.11953250816E+02
 0.13625571088E+02 0.14801674547E+02 0.15398582870E+02 0.15398986839E+02 0.14802262527E+02
 0.13625229011E+02 0.11951735527E+02 0.99695804146E+01 0.79420341789E+01 0.61247656646E+01
 0.46434464099E+01 0.35024543139E+01 0.26631932700E+01 0.20710413681E+01 0.16733701874E+01
 0.14294423607E+01 0.13134295822E+01 0.13133583876E+01 0.14293418526E+01 0.16734263403E+01
 0.20712052796E+01 0.26630849122E+01 0.35017283887E+01 0.46423480677E+01 0.61241810384E+01
 0.79427234188E+01 0.99712842623E+01 0.12236199084E+02 0.13151351702E+02 0.13617236356E+02
 0.13751818453E+02 0.13617055839E+02 0.13150862994E+02 0.12235482522E+02 0.10837348340E+02
 0.90898116349E+01 0.72523896277E+01 0.55969944597E+01 0.42784308454E+01 0.32866284613E+01
 0.25696322794E+01 0.20711020287E+01 0.17448806001E+01 0.15601003771E+01 0.15001872708E+01
 0.15600684803E+01 0.17448686261E+01 0.20712052888E+01 0.25698740183E+01 0.32868256428E+01
 0.42782993699E+01 0.55964931416E+01 0.72518905738E+01 0.90897865642E+01 0.10837881709E+02
 0.11506972364E+02 0.11524192395E+02 0.11405592942E+02 0.11405314467E+02 0.11523587744E+02
 0.11506606580E+02 0.11045174680E+02 0.10005032048E+02 0.85118888412E+01 0.68584455155E+01
 0.53475986649E+01 0.41614581327E+01 0.32863025566E+01 0.26631191085E+01 0.22380139352E+01
 0.19725896242E+01 0.18447202210E+01 0.18448111161E+01 0.19726823904E+01 0.22379128817E+01
 0.26630849302E+01 0.32868256525E+01 0.41625285216E+01 0.53484885265E+01 0.68584091347E+01
 0.85109670546E+01 0.10004013260E+02 0.11044806826E+02 0.95645878204E+01 0.88401383399E+01
 0.85236446979E+01 0.88396038059E+01 0.95641553642E+01 0.10179524055E+02 0.10213548449E+02
 0.95047816301E+01 0.82282273794E+01 0.67304726637E+01 0.53476032782E+01 0.42780487900E+01
 0.35019539454E+01 0.29585233740E+01 0.25991143190E+01 0.23932150363E+01 0.23260454320E+01
 0.23933779301E+01 0.25991664583E+01 0.29583062327E+01 0.35017284124E+01 0.42782993874E+01
 0.53484885353E+01 0.67315295738E+01 0.82287334720E+01 0.95044743365E+01 0.10212921936E+02
 0.10179323960E+02 0.66193369518E+01 0.55989284575E+01 0.55987619597E+01 0.66190729005E+01
 0.81203507446E+01 0.93584521034E+01 0.98006251642E+01 0.93400955181E+01 0.82276147604E+01
 0.68580642748E+01 0.55970210903E+01 0.46431392254E+01 0.39623304915E+01 0.34957297785E+01
 0.32019774859E+01 0.30591802511E+01 0.30593354390E+01 0.32022954529E+01 0.34958411779E+01
 0.39619225621E+01 0.46423480910E+01 0.55964931611E+01 0.68584091464E+01 0.82287334751E+01
 0.93412260809E+01 0.98011427839E+01 0.93584707241E+01 0.81203990865E+01 0.32663820766E+01
 0.25236176574E+01 0.32668524713E+01 0.51569745638E+01 0.73777185210E+01 0.90865299947E+01
 0.98003131822E+01 0.95039917056E+01 0.85110917217E+01 0.72524015645E+01 0.61246161309E+01
 0.52965596083E+01 0.47158373895E+01 0.43287466495E+01 0.41040346470E+01 0.40299341423E+01
 0.41042782785E+01 0.43291253044E+01 0.47161223090E+01 0.52965038901E+01 0.61241810539E+01
 0.72518905866E+01 0.85109670596E+01 0.95044743328E+01 0.98011427773E+01 0.90871458439E+01
 0.73777282585E+01 0.51564893542E+01 0.33111366677E+00 0.33156526255E+00 0.19875655647E+01
 0.46525913327E+01 0.73777351809E+01 0.93581433733E+01 0.10212894938E+02 0.10004452279E+02
 0.90901630156E+01 0.79424029356E+01 0.69792104888E+01 0.62921374023E+01 0.58187495191E+01
 0.55155849579E+01 0.53649827599E+01 0.53647740802E+01 0.55153233948E+01 0.58190697685E+01
 0.62931251167E+01 0.69802164823E+01 0.79427234208E+01 0.90897865631E+01 0.10004013251E+02
 0.10212921918E+02 0.93584707043E+01 0.73777282456E+01 0.46519083732E+01 0.19866050601E+01
 -.13849131367E+01 -.46197952145E+00 0.19867355537E+01 0.51565771408E+01 0.81203875548E+01
 0.10179204529E+02 0.11044552382E+02 0.10837382327E+02 0.99704619966E+01 0.89744684161E+01
 0.82163048844E+01 0.76862894950E+01 0.73283213494E+01 0.71150668609E+01 0.70429004575E+01
 0.71141998700E+01 0.73273389779E+01 0.76859837081E+01 0.82168439255E+01 0.89754104932E+01
 0.99712842516E+01 0.10837881695E+02 0.11044806804E+02 0.10179323931E+02 0.81203990567E+01
 0.51564893314E+01 0.19866050491E+01 -.46207125727E+00 0.12323693688E+01 0.32648877913E+01
 0.61104855592E+01 0.90943645504E+01 0.11538309148E+02 0.12979576744E+02 0.13341633714E+02
 0.12954889936E+02 0.12380358902E+02 0.11987397225E+02 0.11742780181E+02 0.11585358156E+02
 0.11489637729E+02 0.11456503651E+02 0.11489624697E+02 0.11584073702E+02 0.11739639831E+02
 0.11983759020E+02 0.12378389565E+02 0.12955392132E+02 0.13343433949E+02 0.12981027636E+02
 0.11538961707E+02 0.90950007529E+01 0.61118520563E+01 0.32667470480E+01 0.12337235522E+01
 0.49714360404E+00 0.32648877878E+01 0.55967161134E+01 0.85221017709E+01 0.11404331066E+02
 0.13616008645E+02 0.14801185784E+02 0.15050672894E+02 0.14840344621E+02 0.14695794719E+02
 0.14692666242E+02 0.14740243483E+02 0.14781852929E+02 0.14801939408E+02 0.14803679739E+02
 0.14785248789E+02 0.14741665060E+02 0.14690234980E+02 0.14690964345E+02 0.14836184766E+02
 0.15049037446E+02 0.14801674547E+02 0.13617236356E+02 0.11405592942E+02 0.85236446979E+01
 0.55987619597E+01 0.32668524713E+01 0.19875655647E+01 0.19867355537E+01 0.61104855592E+01
 0.85221017709E+01 0.11312283057E+02 0.13876848308E+02 0.15698574448E+02 0.16626908051E+02