<?xml version="1.0" encoding="ISO-8859-1"?>
<modeling>
 <generator>
  <i name="program" type="string">vasp </i>
  <i name="version" type="string">5.4.4.18Apr17-6-g9f103f2a35  </i>
  <i name="subversion" type="string">(build Mar 30 2021 17:29:28) complex            parallel </i>
  <i name="platform" type="string">LinuxGNU </i>
  <i name="date" type="string">2021 03 31 </i>
  <i name="time" type="string">17:11:03 </i>
 </generator>
 <incar>
  <i type="string" name="PREC">normal</i>
  <i type="string" name="ALGO"> normal</i>
  <i type="int" name="IBRION">     3</i>
  <i name="EDIFF">      0.00000100</i>
  <i name="EDIFFG">     -0.03000000</i>
  <i type="int" name="NSW">    50</i>
  <i name="POTIM">      0.00000000</i>
  <v type="int" name="KPOINT_BSE">    -1     0     0     0</v>
 </incar>
 <structure name="primitive_cell" >
  <crystal>
   <varray name="basis" >
    <v>       6.00000000       0.00000000       0.00000000 </v>
    <v>       0.00000000       7.00000000       0.00000000 </v>
    <v>       0.00000000       0.00000000       8.00000000 </v>
   </varray>
   <i name="volume">    336.00000000 </i>
   <varray name="rec_basis" >
    <v>       0.16666667       0.00000000       0.00000000 </v>
    <v>       0.00000000       0.14285714       0.00000000 </v>
    <v>       0.00000000       0.00000000       0.12500000 </v>
   </varray>
  </crystal>
  <varray name="positions" >
   <v>      -0.36357200      -0.43254300      -0.47541775 </v>
   <v>      -0.50000000      -0.50000000      -0.50000000 </v>
   <v>      -0.50000000       0.36498500      -0.47543350 </v>
   <v>       0.36357200      -0.43254300      -0.47541775 </v>
  </varray>
 </structure>
 <varray name="primitive_index" >
  <v type="int" >        1 </v>
  <v type="int" >        4 </v>
  <v type="int" >        2 </v>
  <v type="int" >        3 </v>
 </varray>
 <kpoints>
  <generation param="Gamma">
   <v type="int" name="divisions">       1        1        1 </v>
   <v name="usershift">      0.00000000       0.00000000       0.00000000 </v>
   <v name="genvec1">      1.00000000       0.00000000       0.00000000 </v>
   <v name="genvec2">      0.00000000       1.00000000       0.00000000 </v>
   <v name="genvec3">      0.00000000       0.00000000       1.00000000 </v>
   <v name="shift">      0.00000000       0.00000000       0.00000000 </v>
  </generation>
  <varray name="kpointlist" >
   <v>       0.00000000       0.00000000       0.00000000 </v>
  </varray>
  <varray name="weights" >
   <v>       1.00000000 </v>
  </varray>
 </kpoints>
 <parameters>
  <separator name="general" >
   <i type="string" name="SYSTEM">unknown system</i>
   <i type="logical" name="LCOMPAT"> F  </i>
  </separator>
  <separator name="electronic" >
   <i type="string" name="PREC">normal</i>
   <i name="ENMAX">    400.00000000</i>
   <i name="ENAUG">    627.11200000</i>
   <i name="EDIFF">      0.00000100</i>
   <i type="int" name="IALGO">    38</i>
   <i type="int" name="IWAVPR">    11</i>
   <i type="int" name="NBANDS">     8</i>
   <i name="NELECT">      8.00000000</i>
   <i type="int" name="TURBO">     0</i>
   <i type="int" name="IRESTART">     0</i>
   <i type="int" name="NREBOOT">     0</i>
   <i type="int" name="NMIN">     0</i>
   <i name="EREF">      0.00000000</i>
   <separator name="electronic smearing" >
    <i type="int" name="ISMEAR">     1</i>
    <i name="SIGMA">      0.20000000</i>
    <i name="KSPACING">      0.50000000</i>
    <i type="logical" name="KGAMMA"> T  </i>
   </separator>
   <separator name="electronic projectors" >
    <i type="logical" name="LREAL"> F  </i>
    <v name="ROPT">      0.00000000      0.00000000</v>
    <i type="int" name="LMAXPAW">  -100</i>
    <i type="int" name="LMAXMIX">     2</i>
    <i type="logical" name="NLSPLINE"> F  </i>
   </separator>
   <separator name="electronic startup" >
    <i type="int" name="ISTART">     1</i>
    <i type="int" name="ICHARG">     0</i>
    <i type="int" name="INIWAV">     1</i>
   </separator>
   <separator name="electronic spin" >
    <i type="int" name="ISPIN">     1</i>
    <i type="logical" name="LNONCOLLINEAR"> F  </i>
    <v name="MAGMOM">      1.00000000      1.00000000      1.00000000      1.00000000</v>
    <i name="NUPDOWN">     -1.00000000</i>
    <i type="logical" name="LSORBIT"> F  </i>
    <v name="SAXIS">      0.00000000      0.00000000      1.00000000</v>
    <i type="logical" name="LSPIRAL"> F  </i>
    <v name="QSPIRAL">      0.00000000      0.00000000      0.00000000</v>
    <i type="logical" name="LZEROZ"> F  </i>
   </separator>
   <separator name="electronic exchange-correlation" >
    <i type="logical" name="LASPH"> F  </i>
    <i type="logical" name="LMETAGGA"> F  </i>
   </separator>
   <separator name="electronic convergence" >
    <i type="int" name="NELM">    60</i>
    <i type="int" name="NELMDL">     0</i>
    <i type="int" name="NELMIN">     2</i>
    <i name="ENINI">    400.00000000</i>
    <separator name="electronic convergence detail" >
     <i type="logical" name="LDIAG"> T  </i>
     <i type="logical" name="LSUBROT"> F  </i>
     <i name="WEIMIN">      0.00100000</i>
     <i name="EBREAK">      0.00000003</i>
     <i name="DEPER">      0.30000000</i>
     <i type="int" name="NRMM">     4</i>
     <i name="TIME">      0.40000000</i>
    </separator>
   </separator>
   <separator name="electronic mixer" >
    <i name="AMIX">      0.40000000</i>
    <i name="BMIX">      1.00000000</i>
    <i name="AMIN">      0.10000000</i>
    <i name="AMIX_MAG">      1.60000000</i>
    <i name="BMIX_MAG">      1.00000000</i>
    <separator name="electronic mixer details" >
     <i type="int" name="IMIX">     4</i>
     <i type="logical" name="MIXFIRST"> F  </i>
     <i type="int" name="MAXMIX">   -45</i>
     <i name="WC">    100.00000000</i>
     <i type="int" name="INIMIX">     1</i>
     <i type="int" name="MIXPRE">     1</i>
     <i type="int" name="MREMOVE">     5</i>
    </separator>
   </separator>
   <separator name="electronic dipolcorrection" >
    <i type="logical" name="LDIPOL"> F  </i>
    <i type="logical" name="LMONO"> F  </i>
    <i type="int" name="IDIPOL">     0</i>
    <i name="EPSILON">      1.00000000</i>
    <v name="DIPOL">   -100.00000000   -100.00000000   -100.00000000</v>
    <i name="EFIELD">      0.00000000</i>
   </separator>
  </separator>
  <separator name="grids" >
   <i type="int" name="NGX">    30</i>
   <i type="int" name="NGY">    36</i>
   <i type="int" name="NGZ">    40</i>
   <i type="int" name="NGXF">    60</i>
   <i type="int" name="NGYF">    72</i>
   <i type="int" name="NGZF">    80</i>
   <i type="logical" name="ADDGRID"> F  </i>
  </separator>
  <separator name="ionic" >
   <i type="int" name="NSW">    50</i>
   <i type="int" name="IBRION">     3</i>
   <i type="int" name="MDALGO">     0</i>
   <i type="int" name="ISIF">     2</i>
   <i name="PSTRESS">      0.00000000</i>
   <i name="EDIFFG">     -0.03000000</i>
   <i type="int" name="NFREE">     0</i>
   <i name="POTIM">      0.00000000</i>
   <i name="SMASS">     -3.00000000</i>
   <i name="SCALEE">      1.00000000</i>
  </separator>
  <separator name="ionic md" >
   <i name="TEBEG">      0.00010000</i>
   <i name="TEEND">      0.00010000</i>
   <i type="int" name="NBLOCK">     1</i>
   <i type="int" name="KBLOCK">    50</i>
   <i type="int" name="NPACO">   256</i>
   <i name="APACO">     16.00000000</i>
  </separator>
  <separator name="symmetry" >
   <i type="int" name="ISYM">     2</i>
   <i name="SYMPREC">      0.00001000</i>
  </separator>
  <separator name="dos" >
   <i type="int" name="LORBIT">     0</i>
   <v name="RWIGS">     -1.00000000     -1.00000000</v>
   <i type="int" name="NEDOS">   301</i>
   <i name="EMIN">     10.00000000</i>
   <i name="EMAX">    -10.00000000</i>
   <i name="EFERMI">      0.00000000</i>
  </separator>
  <separator name="writing" >
   <i type="int" name="NWRITE">     2</i>
   <i type="logical" name="LWAVE"> T  </i>
   <i type="logical" name="LDOWNSAMPLE"> F  </i>
   <i type="logical" name="LCHARG"> T  </i>
   <i type="logical" name="LPARD"> F  </i>
   <i type="logical" name="LVTOT"> F  </i>
   <i type="logical" name="LVHAR"> F  </i>
   <i type="logical" name="LELF"> F  </i>
   <i type="logical" name="LOPTICS"> F  </i>
   <v name="STM">      0.00000000      0.00000000      0.00000000      0.00000000      0.00000000      0.00000000      0.00000000</v>
  </separator>
  <separator name="performance" >
   <i type="int" name="NPAR">     2</i>
   <i type="int" name="NSIM">     4</i>
   <i type="int" name="NBLK">    -1</i>
   <i type="logical" name="LPLANE"> T  </i>
   <i type="logical" name="LSCALAPACK"> T  </i>
   <i type="logical" name="LSCAAWARE"> F  </i>
   <i type="logical" name="LSCALU"> F  </i>
   <i type="logical" name="LASYNC"> F  </i>
   <i type="logical" name="LORBITALREAL"> F  </i>
  </separator>
  <separator name="miscellaneous" >
   <i type="int" name="IDIOT">     3</i>
   <i type="int" name="ISPECIAL">     0</i>
   <i type="logical" name="LMUSIC"> F  </i>
   <v name="POMASS">      1.00000000     14.00100000</v>
   <v name="DARWINR">      0.00000000      0.00000000</v>
   <v name="DARWINV">      1.00000000      1.00000000</v>
   <i type="logical" name="LCORR"> T  </i>
  </separator>
  <i type="logical" name="GGA_COMPAT"> T  </i>
  <i type="logical" name="LBERRY"> F  </i>
  <i type="int" name="ICORELEVEL">     0</i>
  <i type="logical" name="LDAU"> F  </i>
  <i type="int" name="I_CONSTRAINED_M">     0</i>
  <separator name="electronic exchange-correlation" >
   <i type="string" name="GGA">--</i>
   <i type="int" name="VOSKOWN">     0</i>
   <i type="logical" name="LHFCALC"> F  </i>
   <i type="string" name="PRECFOCK"></i>
   <i type="logical" name="LSYMGRAD"> F  </i>
   <i type="logical" name="LHFONE"> F  </i>
   <i type="logical" name="LRHFCALC"> F  </i>
   <i type="logical" name="LTHOMAS"> F  </i>
   <i type="logical" name="LMODELHF"> F  </i>
   <i name="ENCUT4O">     -1.00000000</i>
   <i type="int" name="EXXOEP">     0</i>
   <i type="int" name="FOURORBIT">     0</i>
   <i name="AEXX">      0.00000000</i>
   <i name="HFALPHA">      0.00000000</i>
   <i name="MCALPHA">      0.00000000</i>
   <i name="ALDAX">      1.00000000</i>
   <i name="AGGAX">      1.00000000</i>
   <i name="ALDAC">      1.00000000</i>
   <i name="AGGAC">      1.00000000</i>
   <i type="int" name="NKREDX">     1</i>
   <i type="int" name="NKREDY">     1</i>
   <i type="int" name="NKREDZ">     1</i>
   <i type="logical" name="SHIFTRED"> F  </i>
   <i type="logical" name="ODDONLY"> F  </i>
   <i type="logical" name="EVENONLY"> F  </i>
   <i type="int" name="LMAXFOCK">     0</i>
   <i type="int" name="NMAXFOCKAE">     0</i>
   <i type="logical" name="LFOCKAEDFT"> F  </i>
   <i name="HFSCREEN">      0.00000000</i>
   <i name="HFSCREENC">      0.00000000</i>
   <i type="int" name="NBANDSGWLOW">     0</i>
  </separator>
  <separator name="vdW DFT" >
   <i type="logical" name="LUSE_VDW"> F  </i>
   <i name="Zab_VDW">     -0.84910000</i>
   <i name="PARAM1">      0.12340000</i>
   <i name="PARAM2">      1.00000000</i>
   <i name="PARAM3">      0.00000000</i>
  </separator>
  <separator name="model GW" >
   <i type="int" name="MODEL_GW">     0</i>
   <i name="MODEL_EPS0">     50.40000000</i>
   <i name="MODEL_ALPHA">      1.00000000</i>
  </separator>
  <separator name="linear response parameters" >
   <i type="logical" name="LEPSILON"> F  </i>
   <i type="logical" name="LRPA"> F  </i>
   <i type="logical" name="LNABLA"> F  </i>
   <i type="logical" name="LVEL"> F  </i>
   <i type="int" name="KINTER">     0</i>
   <i name="CSHIFT">      0.10000000</i>
   <i name="OMEGAMAX">     -1.00000000</i>
   <i name="DEG_THRESHOLD">      0.00200000</i>
   <i name="RTIME">     -0.10000000</i>
   <i name="WPLASMAI">      0.00000000</i>
   <v name="DFIELD">      0.00000000      0.00000000      0.00000000</v>
   <v name="WPLASMA">      0.00000000      0.00000000      0.00000000      0.00000000      0.00000000      0.00000000      0.00000000      0.00000000      0.00000000</v>
  </separator>
  <separator name="orbital magnetization" >
   <i type="logical" name="NUCIND"> F  </i>
   <v name="MAGPOS">      0.00000000      0.00000000      0.00000000</v>
   <i type="logical" name="LNICSALL"> T  </i>
   <i type="logical" name="ORBITALMAG"> F  </i>
   <i type="logical" name="LMAGBLOCH"> F  </i>
   <i type="logical" name="LCHIMAG"> F  </i>
   <i type="logical" name="LGAUGE"> T  </i>
   <i type="int" name="MAGATOM">     0</i>
   <v name="MAGDIPOL">      0.00000000      0.00000000      0.00000000</v>
   <v name="AVECCONST">      0.00000000      0.00000000      0.00000000</v>
  </separator>
  <separator name="response functions" >
   <i type="logical" name="LADDER"> F  </i>
   <i type="logical" name="LRPAFORCE"> F  </i>
   <i type="logical" name="LFXC"> F  </i>
   <i type="logical" name="LHARTREE"> T  </i>
   <i type="int" name="IBSE">     0</i>
   <v type="int" name="KPOINT">    -1     0     0     0</v>
   <i type="logical" name="LTCTE"> F  </i>
   <i type="logical" name="LTETE"> F  </i>
   <i type="logical" name="LTRIPLET"> F  </i>
   <i type="logical" name="LFXCEPS"> F  </i>
   <i type="logical" name="LFXHEG"> F  </i>
   <i type="int" name="NATURALO">     2</i>
   <i type="logical" name="L2ORDER"> F  </i>
   <i type="logical" name="LMP2LT"> F  </i>
   <i type="logical" name="LUSEW"> F  </i>
   <i name="ENCUTGW">     -2.00000000</i>
   <i name="ENCUTGWSOFT">     -2.00000000</i>
   <i name="ENCUTLF">     -1.00000000</i>
   <i type="int" name="LMAXMP2">    -1</i>
   <i name="SCISSOR">      0.00000000</i>
   <i type="int" name="NOMEGA">     0</i>
   <i type="int" name="NOMEGAR">     0</i>
   <i type="int" name="NBANDSGW">    -1</i>
   <i type="int" name="NBANDSO">    -1</i>
   <i type="int" name="NBANDSV">    -1</i>
   <i type="int" name="NELM">     1</i>
   <i type="int" name="NELMHF">     1</i>
   <i type="int" name="DIM">     3</i>
   <i type="int" name="ANTIRES">     0</i>
   <i name="OMEGAMAX">    -30.00000000</i>
   <i name="OMEGAMIN">    -30.00000000</i>
   <i name="OMEGATL">   -200.00000000</i>
   <i type="int" name="OMEGAGRID">   140</i>
   <i name="CSHIFT">     -0.10000000</i>
   <i type="logical" name="SELFENERGY"> F  </i>
   <i type="logical" name="LSPECTRAL"> F  </i>
   <i type="logical" name="LSPECTRALGW"> F  </i>
   <i type="logical" name="LSINGLES"> F  </i>
   <i type="logical" name="LFERMIGW"> F  </i>
   <i type="logical" name="ODDONLYGW"> F  </i>
   <i type="logical" name="EVENONLYGW"> F  </i>
   <i type="int" name="NKREDLFX">     1</i>
   <i type="int" name="NKREDLFY">     1</i>
   <i type="int" name="NKREDLFZ">     1</i>
   <i type="int" name="MAXMEM">  2800</i>
   <i type="int" name="TELESCOPE">     0</i>
   <i type="int" name="TAUPAR">     1</i>
   <i type="int" name="OMEGAPAR">    -1</i>
   <i name="LAMBDA">      1.00000000</i>
  </separator>
  <separator name="External order field" >
   <i name="OFIELD_KAPPA">      0.00000000</i>
   <v name="OFIELD_K">      0.00000000      0.00000000      0.00000000</v>
   <i name="OFIELD_Q6_NEAR">      0.00000000</i>
   <i name="OFIELD_Q6_FAR">      0.00000000</i>
   <i name="OFIELD_A">      0.00000000</i>
  </separator>
 </parameters>
 <atominfo>
  <atoms>       4 </atoms>
  <types>       2 </types>
  <array name="atoms" >
   <dimension dim="1">ion</dimension>
   <field type="string">element</field>
   <field type="int">atomtype</field>
   <set>
    <rc><c>H </c><c>   1</c></rc>
    <rc><c>H </c><c>   1</c></rc>
    <rc><c>H </c><c>   1</c></rc>
    <rc><c>N </c><c>   2</c></rc>
   </set>
  </array>
  <array name="atomtypes" >
   <dimension dim="1">type</dimension>
   <field type="int">atomspertype</field>
   <field type="string">element</field>
   <field>mass</field>
   <field>valence</field>
   <field type="string">pseudopotential</field>
   <set>
    <rc><c>   3</c><c>H </c><c>      1.00000000</c><c>      1.00000000</c><c>  PAW_PBE H 15Jun2001                   </c></rc>
    <rc><c>   1</c><c>N </c><c>     14.00100000</c><c>      5.00000000</c><c>  PAW_PBE N 08Apr2002                   </c></rc>
   </set>
  </array>
 </atominfo>
 <structure name="initialpos" >
  <crystal>
   <varray name="basis" >
    <v>       6.00000000       0.00000000       0.00000000 </v>
    <v>       0.00000000       7.00000000       0.00000000 </v>
    <v>       0.00000000       0.00000000       8.00000000 </v>
   </varray>
   <i name="volume">    336.00000000 </i>
   <varray name="rec_basis" >
    <v>       0.16666667       0.00000000       0.00000000 </v>
    <v>       0.00000000       0.14285714       0.00000000 </v>
    <v>       0.00000000       0.00000000       0.12500000 </v>
   </varray>
  </crystal>
  <varray name="positions" >
   <v>       0.63642800       0.56745700       0.52458225 </v>
   <v>       0.50000000       0.36498500       0.52456650 </v>
   <v>       0.36357200       0.56745700       0.52458225 </v>
   <v>       0.50000000       0.50000000       0.50000000 </v>
  </varray>
 </structure>
 <calculation>
  <scstep>
   <time name="dav">    0.05    0.04</time>
   <time name="total">    0.22    0.22</time>
   <energy>
    <i name="alphaZ">      0.68708806 </i>
    <i name="ewald">     68.73219124 </i>
    <i name="hartreedc">   -303.90734746 </i>
    <i name="XCdc">     28.60132232 </i>
    <i name="pawpsdc">   4586.91676682 </i>
    <i name="pawaedc">  -4588.19523096 </i>
    <i name="eentropy">      0.01159581 </i>
    <i name="bandstr">   -121.52999913 </i>
    <i name="atom">    301.91090041 </i>
    <i name="e_fr_energy">    -26.77271288 </i>
    <i name="e_wo_entrp">    -26.78430869 </i>
    <i name="e_0_energy">    -26.77657815 </i>
   </energy>
  </scstep>
  <scstep>
   <time name="dav">    0.03    0.04</time>
   <time name="total">    0.20    0.19</time>
   <energy>
    <i name="e_fr_energy">    -21.27001618 </i>
    <i name="e_wo_entrp">    -21.28161199 </i>
    <i name="e_0_energy">    -21.27388145 </i>
   </energy>
  </scstep>
  <scstep>
   <time name="dav">    0.05    0.05</time>
   <time name="total">    0.19    0.19</time>
   <energy>
    <i name="e_fr_energy">    -19.43834703 </i>
    <i name="e_wo_entrp">    -19.44994284 </i>
    <i name="e_0_energy">    -19.44221230 </i>
   </energy>
  </scstep>
  <scstep>
   <time name="dav">    0.06    0.05</time>
   <time name="total">    0.19    0.19</time>
   <energy>
    <i name="e_fr_energy">    -19.31693409 </i>
    <i name="e_wo_entrp">    -19.32852990 </i>
    <i name="e_0_energy">    -19.32079936 </i>
   </energy>
  </scstep>
  <scstep>
   <time name="dav">    0.05    0.06</time>
   <time name="total">    0.20    0.21</time>
   <energy>
    <i name="e_fr_energy">    -19.21316611 </i>
    <i name="e_wo_entrp">    -19.22476192 </i>
    <i name="e_0_energy">    -19.21703138 </i>
   </energy>
  </scstep>
  <scstep>
   <time name="dav">    0.06    0.04</time>
   <time name="total">    0.19    0.18</time>
   <energy>
    <i name="e_fr_energy">    -19.21403014 </i>
    <i name="e_wo_entrp">    -19.22562596 </i>
    <i name="e_0_energy">    -19.21789542 </i>
   </energy>
  </scstep>
  <scstep>
   <time name="dav">    0.08    0.08</time>
   <time name="total">    0.22    0.22</time>
   <energy>
    <i name="e_fr_energy">    -19.20880314 </i>
    <i name="e_wo_entrp">    -19.22039895 </i>
    <i name="e_0_energy">    -19.21266841 </i>
   </energy>
  </scstep>
  <scstep>
   <time name="dav">    0.05    0.05</time>
   <time name="total">    0.20    0.20</time>
   <energy>
    <i name="e_fr_energy">    -19.22352635 </i>
    <i name="e_wo_entrp">    -19.23512216 </i>
    <i name="e_0_energy">    -19.22739162 </i>
   </energy>
  </scstep>
  <scstep>
   <time name="dav">    0.05    0.06</time>
   <time name="total">    0.20    0.20</time>
   <energy>
    <i name="e_fr_energy">    -19.22607763 </i>
    <i name="e_wo_entrp">    -19.23767344 </i>
    <i name="e_0_energy">    -19.22994290 </i>
   </energy>
  </scstep>
  <scstep>
   <time name="dav">    0.05    0.05</time>
   <time name="total">    0.19    0.19</time>
   <energy>
    <i name="e_fr_energy">    -19.22732127 </i>
    <i name="e_wo_entrp">    -19.23891708 </i>
    <i name="e_0_energy">    -19.23118654 </i>
   </energy>
  </scstep>
  <scstep>
   <time name="dav">    0.03    0.04</time>
   <time name="total">    0.19    0.18</time>
   <energy>
    <i name="e_fr_energy">    -19.22768973 </i>
    <i name="e_wo_entrp">    -19.23928554 </i>
    <i name="e_0_energy">    -19.23155500 </i>
   </energy>
  </scstep>
  <scstep>
   <time name="dav">    0.05    0.06</time>
   <time name="total">    0.20    0.21</time>
   <energy>
    <i name="e_fr_energy">    -19.22781594 </i>
    <i name="e_wo_entrp">    -19.23941175 </i>
    <i name="e_0_energy">    -19.231    <i name="XCdc">     29.60546689 </i>
    <i name="pawpsdc">    680.00055015 </i>
    <i name="pawaedc">   -681.73158349 </i>
    <i name="eentropy">      0.01159581 </i>
    <i name="bandstr">   -100.57921876 </i>
    <i name="atom">    301.91090041 </i>
    <i name="e_fr_energy">    -18.98638758 </i>
    <i name="e_wo_entrp">    -18.99798339 </i>
    <i name="e_0_energy">    -18.99025285 </i>
   </energy>
  </scstep>
  <structure>
   <crystal>
    <varray name="basis" >
     <v>       6.00000000       0.00000000       0.00000000 </v>
     <v>       0.00000000       7.00000000       0.00000000 </v>
     <v>       0.00000000       0.00000000       8.00000000 </v>
    </varray>
    <i name="volume">    336.00000000 </i>
    <varray name="rec_basis" >
     <v>       0.16666667       0.00000000       0.00000000 </v>
     <v>       0.00000000       0.14285714       0.00000000 </v>
     <v>       0.00000000       0.00000000       0.12500000 </v>
    </varray>
   </crystal>
   <varray name="positions" >
    <v>       0.63642800       0.56745700       0.50000000 </v>
    <v>       0.50000000       0.36498500       0.50000000 </v>
    <v>       0.36357200       0.56745700       0.50000000 </v>
    <v>       0.50000000       0.50000000       0.50000000 </v>
   </varray>
  </structure>
  <varray name="forces" >
   <v>       2.96686126       1.70982688       0.00000000 </v>
   <v>       0.00000000      -3.43073776       0.00000000 </v>
   <v>      -2.96686126       1.70982688       0.00000000 </v>
   <v>       0.00000000       0.01108401       0.00000000 </v>
  </varray>
  <varray name="stress" >
   <v>      19.23112173       0.00000000       0.00000000 </v>
   <v>       0.00000000      19.03353870       0.00000000 </v>
   <v>       0.00000000       0.00000000      -4.30356878 </v>
  </varray>
  <energy>
   <i name="e_fr_energy">    -18.98638758 </i>
   <i name="e_wo_entrp">    -18.99025285 </i>
   <i name="e_0_energy">      0.01159581 </i>
  </energy>
  <time name="totalsc">    4.09    4.14</time>
 </calculation>
0.00000000       8.00000000 </v>
    </varray>
    <i name="volume">    336.00000000 </i>
    <varray name="rec_basis" >
     <v>       0.16666667       0.00000000       0.00000000 </v>
     <v>       0.00000000       0.14285714       0.00000000 </v>
     <v>       0.00000000       0.00000000       0.12500000 </v>
    </varray>
   </crystal>
   <varray name="positions" >
    <v>       0.63642800       0.56745700       0.47541775 </v>
    <v>       0.50000000       0.36498500       0.47543350 </v>
    <v>       0.36357200       0.56745700       0.47541775 </v>
    <v>       0.50000000       0.50000000       0.50000000 </v>
   </varray>
  </structure>
  <varray name="forces" >
   <v>       1.96822927       1.13544486      -0.66206324 </v>
   <v>       0.00000000      -2.28168111      -0.66270483 </v>
   <v>      -1.96822927       1.13544486      -0.66206324 </v>
   <v>       0.00000000       0.01079138       1.98683132 </v>
  </varray>
  <varray name="stress" >
   <v>      11.68091422       0.00000000       0.00000000 </v>
   <v>       0.00000000      11.45361712       0.03925073 </v>
   <v>       0.00000000       0.03925073      -2.33610426 </v>
  </varray>
  <energy>
   <i name="e_fr_energy">    -19.22786867 </i>
   <i name="e_wo_entrp">    -19.23173394 </i>
   <i name="e_0_energy">      0.01159581 </i>
  </energy>
  <time name="totalsc">    4.05    4.12</time>
 </calculation>
 <calculation>
  <scstep>
   <time name="dav">    0.06    0.06</time>
   <time name="total">    0.22    0.22</time>
   <energy>
    <i name="alphaZ">      0.68708806 </i>
    <i name="ewald">     72.98548141 </i>
    <i name="hartreedc">   -322.14735289 </i>
    <i name="XCdc">     29.59179710 </i>
    <i name="pawpsdc">    680.00816812 </i>
    <i name="pawaedc">   -681.73919802 </i>
    <i name="eentropy">      0.01159581 </i>
    <i name="bandstr">   -100.31499464 </i>
    <i name="atom">    301.91090041 </i>
    <i name="e_fr_energy">    -19.00651465 </i>
    <i name="e_wo_entrp">    -19.01811046 </i>
    <i name="e_0_energy">    -19.01037992 </i>
   </energy>
  </scstep>
  <scstep>
   <time name="dav">    0.05    0.04</time>
   <time name="total">    0.19    0.19</time>
   <energy>
    <i name="e_fr_energy">    -19.00643000 </i>
    <i name="e_wo_entrp">    -19.01802581 </i>
    <i name="e_0_energy">    -19.01029527 </i>
   </energy>
  </scstep>
  <scstep>
   <time name="dav">    0.09    0.08</time>
   <time name="total">    0.27    0.29</time>
   <energy>
    <i name="e_fr_energy">    -19.00642759 </i>
    <i name="e_wo_entrp">    -19.01802340 </i>
    <i name="e_0_energy">    -19.01029286 </i>
   </energy>
  </scstep>
  <scstep>
   <time name="dav">    0.05    0.05</time>
   <time name="total">    0.19    0.21</time>
   <energy>
    <i name="alphaZ">      0.68708806 </i>
    <i name="ewald">     72.98548141 </i>
    <i name="hartreedc">   -322.00468810 </i>
    <i name="XCdc">     29.58349168 </i>
    <i name="pawpsdc">    677.13313375 </i>
    <i name="pawaedc">   -678.86106018 </i>
    <i name="eentropy">      0.01159581 </i>
    <i name="bandstr">   -100.45237088 </i>
    <i name="atom">    301.91090041 </i>
    <i name="e_fr_energy">    -19.00642805 </i>
    <i name="e_wo_entrp">    -19.01802386 </i>
    <i name="e_0_energy">    -19.01029332 </i>
   </energy>
  </scstep>
  <structure>
   <crystal>
    <varray name="basis" >
     <v>       6.00000000       0.00000000       0.00000000 </v>
     <v>       0.00000000       7.00000000       0.00000000 </v>
     <v>       0.00000000       0.00000000       8.00000000 </v>
    </varray>
    <i name="volume">    336.00000000 </i>
    <varray name="rec_basis" >
     <v>       0.16666667       0.00000000       0.00000000 </v>
     <v>       0.00000000       0.14285714       0.00000000 </v>
     <v>       0.00000000       0.00000000       0.12500000 </v>
    </varray>
   </crystal>
   <varray name="positions" >
    <v>       0.63671506       0.56759880       0.50000000 </v>
    <v>       0.50000000       0.36470048       0.50000000 </v>
    <v>       0.36328494       0.56759880       0.50000000 </v>
    <v>       0.50000000       0.50000092       0.50000000 </v>
   </varray>
  </structure>
  <varray name="forces" >
   <v>       2.85089758       1.64306368       0.00000000 </v>
   <v>       0.00000000      -3.29642520       0.00000000 </v>
   <v>      -2.85089758       1.64306368       0.00000000 </v>
   <v>       0.00000000       0.01029784       0.00000000 </v>
  </varray>
  <varray name="stress" >
   <v>      18.34890898       0.00000000       0.00000000 </v>
   <v>       0.00000000      18.14607840       0.00000000 </v>
   <v>       0.00000000       0.00000000      -4.33163791 </v>
  </varray>
  <energy>
   <i name="e_fr_energy">    -19.00642805 </i>
   <i name="e_wo_entrp">    -19.01029332 </i>
   <i name="e_0_energy">      0.01159581 </i>
  </energy>
  <time name="totalsc">    1.34    1.42</time>
 </calculation>
 <calculation>
  <scstep>
   <time name="dav">    0.05    0.05</time>
   <time name="total">    0.22    0.22</time>
   <energy>
    <i name="alphaZ">      0.68708806 </i>
    <i name="ewald">     63.39934879 </i>
    <i name="hartreedc">   -315.92800808 </i>
    <i name="XCdc">     29.25985176 </i>
    <i name="pawpsdc">    646.82041385 </i>
    <i name="pawaedc">   -648.49620376 </i>
    <i name="eentropy">      0.01159581 </i>
    <i name="bandstr">    -97.02311517 </i>
    <i name="atom">    301.91090041 </i>
    <i name="e_fr_energy">    -19.35812834 </i>
    <i name="e_wo_entrp">    -19.36972415 </i>
    <i name="e_0_energy">    -19.36199361 </i>
   </energy>
  </scstep>
  <scstep>
   <time name="dav">    0.06    0.06</time>
   <time name="total">    0.23    0.24</time>
   <energy>
    <i name="e_fr_energy">    -19.35028249 </i>
    <i name="e_wo_entrp">    -19.36187830 </i>
    <i name="e_0_energy">    -19.35414776 </i>
   </energy>
  </scstep>
  <scstep>
   <time name="dav">    0.05    0.05</time>
   <time name="total">    0.27    0.26</time>
   <energy>
    <i name="e_fr_energy">    -19.34974958 </i>
    <i name="e_wo_entrp">    -19.36134540 </i>
    <i name="e_0_energy">    -19.35361486 </i>
   </energy>
  </scstep>
  <scstep>
   <time name="dav">    0.06    0.07</time>
   <time name="total">    0.22    0.26</time>
   <energy>
    <i name="e_fr_energy">    -19.34972891 </i>
    <i name="e_wo_entrp">    -19.36132472 </i>
    <i name="e_0_energy">    -19.35359418 </i>
   </energy>
  </scstep>
  <scstep>
   <time name="dav">    0.08    0.09</time>
   <time name="total">    0.23    0.25</time>
   <energy>
    <i name="e_fr_energy">    -19.34974830 </i>
    <i name="e_wo_entrp">    -19.36134411 </i>
    <i name="e_0_energy">    -19.35361357 </i>
   </energy>
  </scstep>
  <scstep>
   <time name="dav">    0.05    0.05</time>
   <time name="total">    0.20    0.21</time>
   <energy>
    <i name="e_fr_energy">    -19.34975927 </i>
    <i name="e_wo_entrp">    -19.36135508 </i>
    <i name="e_0_energy">    -19.35362454 </i>
   </energy>
  </scstep>
  <scstep>
   <time name="dav">    0.05    0.05</time>
   <time name="total">    0.20    0.20</time>
   <energy>
    <i name="e_fr_energy">    -19.34977478 </i>
    <i name="e_wo_entrp">    -19.36137059 </i>
    <i name="e_0_energy">    -19.35364005 </i>
   </energy>
  </scstep>
  <scstep>
   <time name="dav">    0.05    0.06</time>
   <time name="total">    0.19    0.20</time>
   <energy>
    <i name="e_fr_energy">    -19.34978906 </i>
    <i name="e_wo_entrp">    -19.36138487 </i>
    <i name="e_0_energy">    -19.35365433 </i>
   </energy>
  </scstep>
  <scstep>
   <time name="dav">    0.05    0.05</time>
   <time name="total">    0.19    0.19</time>
   <energy>
    <i name="e_fr_energy">    -19.34979766 </i>
    <i name="e_wo_entrp">    -19.36139347 </i>
    <i name="e_0_energy">    -19.35366293 </i>
   </energy>
  </scstep>
  <scstep>
   <time name="dav">    0.05    0.05</time>
   <time name="total">    0.19    0.20</time>
   <energy>
    <i name="e_fr_energy">    -19.34980005 </i>
    <i name="e_wo_entrp">    -19.36139586 </i>
    <i name="e_0_energy">    -19.35366532 </i>
   </energy>
  </scstep>
  <scstep>
   <time name="dav">    0.06    0.06</time>
   <time name="total">    0.20    0.20</time>
   <energy>
    <i name="alphaZ">      0.68708806 </i>
    <i name="ewald">     63.39934879 </i>
    <i name="hartreedc">   -314.45086850 </i>
    <i name="XCdc">     29.17464638 </i>
    <i name="pawpsdc">    619.93520306 </i>
    <i name="pawaedc">   -621.57936612 </i>
    <i name="eentropy">      0.01159581 </i>
    <i name="bandstr">    -98.43834819 </i>
    <i name="atom">    301.91090041 </i>
    <i name="e_fr_energy">    -19.34980031 </i>
    <i name="e_wo_entrp">    -19.36139612 </i>
    <i name="e_0_energy">    -19.35366558 </i>
   </energy>
  </scstep>
  <structure>
   <crystal>
    <varray name="basis" >
     <v>       6.00000000       0.00000000       0.00000000 </v>
     <v>       0.00000000       7.00000000       0.00000000 </v>
     <v>       0.00000000       0.00000000       8.00000000 </v>
    </varray>
    <i name="volume">    336.00000000 </i>
    <varray name="rec_basis" >
     <v>       0.16666667       0.00000000       0.00000000 </v>
     <v>       0.00000000       0.14285714       0.00000000 </v>
     <v>       0.00000000       0.00000000       0.12500000 </v>
    </varray>
   </crystal>
   <varray name="positions" >
    <v>       0.63912038       0.56878844       0.52458554 </v>
    <v>       0.50000000       0.36231000       0.52457079 </v>
    <v>       0.36087962       0.56878844       0.52458554 </v>
    <v>       0.50000000       0.50001212       0.49793112 </v>
   </varray>
  </structure>
  <varray name="forces" >
   <v>       0.94804389       0.54775076       0.47556343 </v>
   <v>       0.00000000      -1.09663471       0.47469881 </v>
   <v>      -0.94804389       0.54775076       0.47556343 </v>
   <v>       0.00000000       0.00113319      -1.42582568 </v>
  </varray>
  <varray name="stress" >
   <v>       4.10103537       0.00000000       0.00000000 </v>
   <v>       0.00000000       3.80496696      -0.03237761 </v>
   <v>       0.00000000      -0.03237762      -2.65286484 </v>
  </varray>
  <energy>
   <i name="e_fr_energy">    -19.34980030 </i>
   <i name="e_wo_entrp">    -19.35366557 </i>
   <i name="e_0_energy">      0.01159581 </i>
  </energy>
  <time name="totalsc">    2.83    2.86</time>
 </calculation>
 <calculation>
  <scstep>
   <time name="dav">    0.05    0.05</time>
   <time name="total">    0.20    0.22</time>
   <energy>
    <i name="alphaZ">      0.68708806 </i>
    <i name="ewald">     59.43157188 </i>
    <i name="hartreedc">   -313.26781246 </i>
    <i name="XCdc">     29.10785706 </i>
    <i name="pawpsdc">    641.18593484 </i>
    <i name="pawaedc">   -642.87499217 </i>
    <i name="eentropy">      0.01159581 </i>
    <i name="bandstr">    -95.48106500 </i>
    <i name="atom">    301.91090041 </i>
    <i name="e_fr_energy">    -19.28892155 </i>
    <i name="e_wo_entrp">    -19.30051736 </i>
    <i name="e_0_energy">    -19.29278682 </i>
   </energy>
  </scstep>
  <scstep>
   <time name="dav">    0.06    0.06</time>
   <time name="total">    0.23    0.23</time>
   <energy>
    <i name="e_fr_energy">    -19.27530394 </i>
    <i name="e_wo_entrp">    -19.28689975 </i>
    <i name="e_0_energy">    -19.27916921 </i>
   </energy>
  </scstep>
  <scstep>
   <time name="dav">    0.05    0.05</time>
   <time name="total">    0.20    0.20</time>
   <energy>
    <i name="e_fr_energy">    -19.27491596 </i>
    <i name="e_wo_entrp">    -19.28651177 </i>
    <i name="e_0_energy">    -19.27878123 </i>
   </energy>
  </scstep>
  <scstep>
   <time name="dav">    0.06    0.07</time>
   <time name="total">    0.23    0.23</time>
   <energy>
    <i name="e_fr_energy">    -19.27494230 </i>
    <i name="e_wo_entrp">    -19.28653811 </i>
    <i name="e_0_energy">    -19.27880757 </i>
   </energy>
  </scstep>
  <scstep>
   <time name="dav">    0.05    0.05</time>
   <time name="total">    0.20    0.21</time>
   <energy>
    <i name="e_fr_energy">    -19.27493815 </i>
    <i name="e_wo_entrp">    -19.28653396 </i>
    <i name="e_0_energy">    -19.27880342 </i>
   </energy>
  </scstep>
  <scstep>
   <time name="dav">    0.05    0.06</time>
   <time name="total">    0.23    0.24</time>
   <energy>
    <i name="e_fr_energy">    -19.27496850 </i>
    <i name="e_wo_entrp">    -19.28656431 </i>
    <i name="e_0_energy">    -19.27883377 </i>
   </energy>
  </scstep>
  <scstep>
   <time name="dav">    0.05    0.05</time>
   <time name="total">    0.23    0.27</time>
   <energy>
    <i name="e_fr_energy">    -19.27499364 </i>
    <i name="e_wo_entrp">    -19.28658945 </i>
    <i name="e_0_energy">    -19.27885891 </i>
   </energy>
  </scstep>
  <scstep>
   <time name="dav">    0.05    0.04</time>
   <time name="total">    0.19    0.19</time>
   <energy>
    <i name="e_fr_energy">    -19.27501089 </i>
    <i name="e_wo_entrp">    -19.28660670 </i>
    <i name="e_0_energy">    -19.27887616 </i>
   </energy>
  </scstep>
  <scstep>
   <time name="dav">    0.06    0.07</time>
   <time name="total">    0.20    0.22</time>
   <energy>
    <i name="e_fr_energy">    -19.27501398 </i>
    <i name="e_wo_entrp">    -19.28660979 </i>
    <i name="e_0_energy">    -19.27887925 </i>
   </energy>
  </scstep>
  <scstep>
   <time name="dav">    0.05    0.05</time>
   <time name="total">    0.22    0.21</time>
   <energy>
    <i name="e_fr_energy">    -19.27501547 </i>
    <i name="e_wo_entrp">    -19.28661128 </i>
    <i name="e_0_energy">    -19.27888074 </i>
   </energy>
  </scstep>
  <scstep>
   <time name="dav">    0.05    0.04</time>
   <time name="total">    0.17    0.18</time>
   <energy>
    <i name="alphaZ">      0.68708806 </i>
    <i name="ewald">     59.43157188 </i>
    <i name="hartreedc">   -311.37409065 </i>
    <i name="XCdc">     28.99771931 </i>
    <i name="pawpsdc">    604.83459791 </i>
    <i name="pawaedc">   -606.48669643 </i>
    <i name="eentropy">      0.01159581 </i>
    <i name="bandstr">    -97.28770185 </i>
    <i name="atom">    301.91090041 </i>
    <i name="e_fr_energy">    -19.27501555 </i>
    <i name="e_wo_entrp">    -19.28661136 </i>
    <i name="e_0_energy">    -19.27888082 </i>
   </energy>
  </scstep>
  <structure>
   <crystal>
    <varray name="basis" >
     <v>       6.00000000       0.00000000       0.00000000 </v>
     <v>       0.00000000       7.00000000       0.00000000 </v>
     <v>       0.00000000       0.00000000       8.00000000 </v>
    </varray>
    <i name="volume">    336.00000000 </i>
    <varray name="rec_basis" >
     <v>       0.16666667       0.00000000       0.00000000 </v>
     <v>       0.00000000       0.14285714       0.00000000 </v>
     <v>       0.00000000       0.00000000       0.12500000 </v>
    </varray>
   </crystal>
   <varray name="positions" >
    <v>       0.64459685       0.57149193       0.50000000 </v>
    <v>       0.50000000       0.35689717       0.50000000 </v>
    <v>       0.35540315       0.57149193       0.50000000 </v>
    <v>       0.50000000       0.50001798       0.50000000 </v>
   </varray>
  </structure>
  <varray name="forces" >
   <v>       0.14662030       0.08339109       0.00000000 </v>
   <v>       0.00000000      -0.17044122       0.00000000 </v>
   <v>      -0.14662030       0.08339109       0.00000000 </v>
   <v>       0.00000000       0.00365904       0.00000000 </v>
  </varray>
  <varray name="stress" >
   <v>      -2.09832050       0.00000000       0.00000000 </v>
   <v>       0.00000000      -2.41982035       0.00000000 </v>
   <v>       0.00000000       0.00000000      -4.08670275 </v>
  </varray>
  <energy>
   <i name="e_fr_energy">    -19.27501555 </i>
   <i name="e_wo_entrp">    -19.27888082 </i>
   <i name="e_0_energy">      0.01159581 </i>
  </energy>
  <time name="totalsc">    2.75    2.83</time>
 </calculation>
 <calculation>
  <scstep>
   <time name="dav">    0.05    0.04</time>
   <time name="total">    0.23    0.22</time>
   <energy>
    <i name="alphaZ">      0.68708806 </i>
    <i name="ewald">     56.68565217 </i>
    <i name="hartreedc">   -309.42012424 </i>
    <i name="XCdc">     28.90433254 </i>
    <i name="pawpsdc">    589.60525420 </i>
    <i name="pawaedc">   -591.21308012 </i>
    <i name="eentropy">      0.01159581 </i>
    <i name="bandstr">    -96.58782860 </i>
    <i name="atom">    301.91090041 </i>
    <i name="e_fr_energy">    -19.41620977 </i>
    <i name="e_wo_entrp">    -19.42780558 </i>
    <i name="e_0_energy">    -19.42007504 </i>
   </energy>
  </scstep>
  <scstep>
   <time name="dav">    0.06    0.05</time>
   <time name="total">    0.22    0.22</time>
   <energy>
    <i name="e_fr_energy">    -19.41572473 </i>
    <i name="e_wo_entrp">    -19.42732054 </i>
    <i name="e_0_energy">    -19.41959000 </i>
   </energy>
  </scstep>
  <scstep>
   <time name="dav">    0.06    0.05</time>
   <time name="total">    0.22    0.22</time>
   <energy>
    <i name="e_fr_energy">    -19.41565839 </i>
    <i name="e_wo_entrp">    -19.42725421 </i>
    <i name="e_0_energy">    -19.41952367 </i>
   </energy>
  </scstep>
  <scstep>
   <time name="dav">    0.03    0.05</time>
   <time name="total">    0.22    0.22</time>
   <energy>
    <i name="e_fr_energy">    -19.41566205 </i>
    <i name="e_wo_entrp">    -19.42725787 </i>
    <i name="e_0_energy">    -19.41952732 </i>
   </energy>
  </scstep>
  <scstep>
   <time name="dav">    0.09    0.08</time>
   <time name="total">    0.25    0.25</time>
   <energy>
    <i name="e_fr_energy">    -19.41566459 </i>
    <i name="e_wo_entrp">    -19.42726040 </i>
    <i name="e_0_energy">    -19.41952986 </i>
   </energy>
  </scstep>
  <scstep>
   <time name="dav">    0.05    0.05</time>
   <time name="total">    0.22    0.22</time>
   <energy>
    <i name="e_fr_energy">    -19.41566831 </i>
    <i name="e_wo_entrp">    -19.42726412 </i>
    <i name="e_0_energy">    -19.41953358 </i>
   </energy>
  </scstep>
  <scstep>
   <time name="dav">    0.05    0.05</time>
   <time name="total">    0.22    0.22</time>
   <energy>
    <i name="e_fr_energy">    -19.41567414 </i>
    <i name="e_wo_entrp">    -19.42726995 </i>
    <i name="e_0_energy">    -19.41953941 </i>
   </energy>
  </scstep>
  <scstep>
   <time name="dav">    0.08    0.07</time>
   <time name="total">    0.22    0.22</time>
   <energy>
    <i name="e_fr_energy">    -19.41568080 </i>
    <i name="e_wo_entrp">    -19.42727661 </i>
    <i name="e_0_energy">    -19.41954607 </i>
   </energy>
  </scstep>
  <scstep>
   <time name="dav">    0.05    0.04</time>
   <time name="total">    0.19    0.19</time>
   <energy>
    <i name="e_fr_energy">    -19.41568401 </i>
    <i name="e_wo_entrp">    -19.42727982 </i>
    <i name="e_0_energy">    -19.41954928 </i>
   </energy>
  </scstep>
  <scstep>
   <time name="dav">    0.06    0.06</time>
   <time name="total">    0.20    0.20</time>
   <energy>
    <i name="alphaZ">      0.68708806 </i>
    <i name="ewald">     56.68565217 </i>
    <i name="hartreedc">   -309.03532119 </i>
    <i name="XCdc">     28.88172464 </i>
    <i name="pawpsdc">    583.43017722 </i>
    <i name="pawaedc">   -585.02920509 </i>
    <i name="eentropy">      0.01159581 </i>
    <i name="bandstr">    -96.95829683 </i>
    <i name="atom">    301.91090041 </i>
    <i name="e_fr_energy">    -19.41568480 </i>
    <i name="e_wo_entrp">    -19.42728061 </i>
    <i name="e_0_energy">    -19.41955007 </i>
   </energy>
  </scstep>
  <structure>
   <crystal>
    <varray name="basis" >
     <v>       6.00000000       0.00000000       0.00000000 </v>
     <v>       0.00000000       7.00000000       0.00000000 </v>
     <v>       0.00000000       0.00000000       8.00000000 </v>
    </varray>
    <i name="volume">    336.00000000 </i>
    <varray name="rec_basis" >
     <v>       0.16666667       0.00000000       0.00000000 </v>
     <v>       0.00000000       0.14285714       0.00000000 </v>
     <v>       0.00000000       0.0    <v>       0.50000000       0.50002507       0.50000000 </v>
   </varray>
  </structure>
  <varray name="forces" >
   <v>      -0.06575417      -0.03856225       0.00000000 </v>
   <v>       0.00000000       0.07747744       0.00000000 </v>
   <v>       0.06575417      -0.03856225       0.00000000 </v>
   <v>       0.00000000      -0.00035294       0.00000000 </v>
  </varray>
  <varray name="stress" >
   <v>      -3.79681080       0.00000000       0.00000000 </v>
   <v>       0.00000000      -4.14197582       0.00000000 </v>
   <v>       0.00000000       0.00000000      -4.06962860 </v>
  </varray>
  <energy>
   <i name="e_fr_energy">    -19.27572959 </i>
   <i name="e_wo_entrp">    -19.27959486 </i>
   <i name="e_0_energy">      0.01159581 </i>
  </energy>
  <time name="totalsc">    2.56    2.61</time>
 </calculation>
000       0.03232570      -3.12171924 </v>
  </varray>
  <energy>
   <i name="e_fr_energy">    -19.41568480 </i>
   <i name="e_wo_entrp">    -19.41955007 </i>
   <i name="e_0_energy">      0.01159581 </i>
  </energy>
  <time name="totalsc">    2.59    2.61</time>
 </calculation>
 <calculation>
  <scstep>
   <time name="dav">    0.05    0.04</time>
   <time name="total">    0.22    0.22</time>
   <energy>
    <i name="alphaZ">      0.68708806 </i>
    <i name="ewald">     55.33508969 </i>
    <i name="hartreedc">   -308.51142938 </i>
    <i name="XCdc">     28.85908907 </i>
    <i name="pawpsdc">    583.42051115 </i>
    <i name="pawaedc">   -585.01953496 </i>
    <i name="eentropy">      0.01159581 </i>
    <i name="bandstr">    -96.13068383 </i>
    <i name="atom">    301.91090041 </i>
    <i name="e_fr_energy">    -19.43737398 </i>
    <i name="e_wo_entrp">    -19.44896979 </i>
    <i name="e_0_energy">    -19.44123925 </i>
   </energy>
  </scstep>
  <scstep>
   <time name="dav">    0.05    0.05</time>
   <time name="total">    0.20    0.21</time>
   <energy>
    <i name="e_fr_energy">    -19.43591437 </i>
    <i name="e_wo_entrp">    -19.44751018 </i>
    <i name="e_0_energy">    -19.43977964 </i>
   </energy>
  </scstep>
  <scstep>
   <time name="dav">    0.06    0.06</time>
   <time name="total">    0.22    0.22</time>
   <energy>
    <i name="e_fr_energy">    -19.43543031 </i>
    <i name="e_wo_entrp">    -19.44702613 </i>
    <i name="e_0_energy">    -19.43929558 </i>
   </energy>
  </scstep>
  <scstep>
   <time name="dav">    0.03    0.04</time>
   <time name="total">    0.22    0.22</time>
   <energy>
    <i name="e_fr_energy">    -19.43548152 </i>
    <i name="e_wo_entrp">    -19.44707733 </i>
    <i name="e_0_energy">    -19.43934679 </i>
   </energy>
  </scstep>
  <scstep>
   <time name="dav">    0.06    0.07</time>
   <time name="total">    0.23    0.23</time>
   <energy>
    <i name="e_fr_energy">    -19.43551864 </i>
    <i name="e_wo_entrp">    -19.44711445 </i>
    <i name="e_0_energy">    -19.43938391 </i>
   </energy>
  </scstep>
  <scstep>
   <time name="dav">    0.05    0.05</time>
   <time name="total">    0.20    0.20</time>
   <energy>
    <i name="e_fr_energy">    -19.43555359 </i>
    <i name="e_wo_entrp">    -19.44714940 </i>
    <i name="e_0_energy">    -19.43941886 </i>
   </energy>
  </scstep>
  <scstep>
   <time name="dav">    0.06    0.06</time>
   <time name="total">    0.22    0.23</time>
   <energy>
    <i name="e_fr_energy">    -19.43559677 </i>
    <i name="e_wo_entrp">    -19.44719258 </i>
    <i name="e_0_energy">    -19.43946204 </i>
   </energy>
  </scstep>
  <scstep>
   <time name="dav">    0.06    0.06</time>
   <time name="total">    0.23    0.22</time>
   <energy>
    <i name="e_fr_energy">    -19.43564536 </i>
    <i name="e_wo_entrp">    -19.44724117 </i>
    <i name="e_0_energy">    -19.43951063 </i>
   </energy>
  </scstep>
  <scstep>
   <time name="dav">    0.05    0.05</time>
   <time name="total">    0.20    0.19</time>
   <energy>
    <i name="e_fr_energy">    -19.43565826 </i>
    <i name="e_wo_entrp">    -19.44725407 </i>
    <i name="e_0_energy">    -19.43952353 </i>
   </energy>
  </scstep>
  <scstep>
   <time name="dav">    0.03    0.04</time>
   <time name="total">    0.19    0.19</time>
   <energy>
    <i name="e_fr_energy">    -19.43566566 </i>
    <i name="e_wo_entrp">    -19.44726147 </i>
    <i name="e_0_energy">    -19.43953093 </i>
   </energy>
  </scstep>
  <scstep>
   <time name="dav">    0.06    0.07</time>
   <time name="total">    0.16    0.17</time>
   <energy>
    <i name="alphaZ">      0.68708806 </i>
    <i name="ewald">     55.33508969 </i>
    <i name="hartreedc">   -307.90242976 </i>
    <i name="XCdc">     28.82225050 </i>
    <i name="pawpsdc">    574.82902404 </i>
    <i name="pawaedc">   -576.41212463 </i>
    <i name="eentropy">      0.01159581 </i>
    <i name="bandstr">    -96.71706034 </i>
    <i name="atom">    301.91090041 </i>
    <i name="e_fr_energy">    -19.43566621 </i>
    <i name="e_wo_entrp">    -19.44726202 </i>
    <i name="e_0_energy">    -19.43953148 </i>
   </energy>
  </scstep>
  <structure>
   <crystal>
    <varray name="basis" >
     <v>       6.00000000       0.00000000       0.00000000 </v>
     <v>       0.00000000       7.00000000       0.00000000 </v>
     <v>       0.00000000       0.0000    <v>       0.50000000       </varray>
    <i name="volume">    336.00000000 </i>
    <varray name="rec_basis" >
     <v>       0.16666667       0.00000000       0.00000000 </v>
     <v>       0.00000000       0.14285714       0.00000000 </v>
     <v>       0.00000000       0.00000000       0.12500000 </v>
    </varray>
   </crystal>
   <varray name="positions" >
    <v>       0.64202143       0.57022983       0.47574163 </v>
    <v>       0.50000000       0.35942532       0.47575970 </v>
    <v>       0.35797857       0.57022983       0.47574163 </v>
    <v>       0.50000000       0.50001401       0.51070025 </v>
   </varray>
  </structure>
  <varray name="forces" >
   <v>      -0.34897718      -0.20066199      -0.16678962 </v>
   <v>       0.00000000       0.40062195      -0.16711093 </v>
   <v>       0.34897718      -0.20066199      -0.16678962 </v>
   <v>       0.00000000       0.00070203       0.50069017 </v>
  </varray>
  <varray name="stress" >
   <v>      -5.86933808       0.00000000       0.00000000 </v>
   <v>       0.00000000      -6.22583542       0.03520832 </v>
   <v>       0.00000000       0.03520831      -3.28455478 </v>
  </varray>
  <energy>
   <i name="e_fr_energy">    -19.43566621 </i>
   <i name="e_wo_entrp">    -19.43953148 </i>
   <i name="e_0_energy">      0.01159581 </i>
  </energy>
  <time name="totalsc">    2.69    2.71</time>
 </calculation>
 <calculation>
  <scstep>
   <time name="dav">    0.03    0.05</time>
   <time name="total">    0.20    0.20</time>
   <energy>
    <i name="alphaZ">      0.68708806 </i>
    <i name="ewald">     56.03135507 </i>
    <i name="hartreedc">   -308.88665506 </i>
    <i name="XCdc">     28.86198484 </i>
    <i name="pawpsdc">    591.74633607 </i>
    <i name="pawaedc">   -593.38564327 </i>
    <i name="eentropy">      0.01159581 </i>
    <i name="bandstr">    -96.24449446 </i>
    <i name="atom">    301.91090041 </i>
    <i name="e_fr_energy">    -19.26753251 </i>
    <i name="e_wo_entrp">    -19.27912832 </i>
    <i name="e_0_energy">    -19.27139778 </i>
   </energy>
  </scstep>
  <scstep>
   <time name="dav">    0.05    0.04</time>
   <time name="total">    0.19    0.19</time>
   <energy>
    <i name="e_fr_energy">    -19.26732582 </i>
    <i name="e_wo_entrp">    -19.27892163 </i>
    <i name="e_0_energy">    -19.27119109 </i>
   </energy>
  </scstep>
  <scstep>
   <time name="dav">    0.06    0.07</time>
   <time name="total">    0.25    0.27</time>
   <energy>
    <i name="e_fr_energy">    -19.26731837 </i>
    <i name="e_wo_entrp">    -19.27891418 </i>
    <i name="e_0_energy">    -19.27118364 </i>
   </energy>
  </scstep>
  <scstep>
   <time name="dav">    0.05    0.05</time>
   <time name="total">    0.22    0.22</time>
   <energy>
    <i name="e_fr_energy">    -19.26731901 </i>
    <i name="e_wo_entrp">    -19.27891482 </i>
    <i name="e_0_energy">    -19.27118428 </i>
   </energy>
  </scstep>
  <scstep>
   <time name="dav">    0.06    0.07</time>
   <time name="total">    0.22    0.22</time>
   <energy>
    <i name="e_fr_energy">    -19.26731805 </i>
    <i name="e_wo_entrp">    -19.27891386 </i>
    <i name="e_0_energy">    -19.27118332 </i>
   </energy>
  </scstep>
  <scstep>
   <time name="dav">    0.05    0.04</time>
   <time name="total">    0.19    0.18</time>
   <energy>
    <i name="alphaZ">      0.68708806 </i>
    <i name="ewald">     56.03135507 </i>
    <i name="hartreedc">   -308.65059771 </i>
    <i name="XCdc">     28.84819865 </i>
    <i name="pawpsdc">    587.25266640 </i>
    <i name="pawaedc">   -588.88762725 </i>
    <i name="eentropy">      0.01159581 </i>
    <i name="bandstr">    -96.47089816 </i>
    <i name="atom">    301.91090041 </i>
    <i name="e_fr_energy">    -19.26731871 </i>
    <i name="e_wo_entrp">    -19.27891452 </i>
    <i name="e_0_energy">    -19.27118398 </i>
   </energy>
  </scstep>
  <structure>
   <crystal>
    <varray name="basis" >
     <v>       6.00000000       0.00000000       0.00000000 </v>
     <v>       0.00000000       7.00000000       0.00000000 </v>
     <v>       0.00000000       0.00000000       8.00000000 </v>
    </varray>
    <i name="volume">    336.00000000 </i>
    <varray name="rec_basis" >
     <v>       0.16666667       0.00000000       0.00000000 </v>
     <v>       0.00000000       0.14285714       0.00000000 </v>
     <v>       0.00000000       0.00000000       0.12500000 </v>
    </varray>
   </crystal>
   <varray name="positions" >
    <v>       0.64669495       0.57251263       0.50000000 </v>
    <v>       0.50000000       0.35471662       0.50000000 </v>
    <v>       0.35330505       0.57251263       0.50000000 </v>
    <v>       0.50000000       0.50015712       0.50000000 </v>
   </varray>
  </structure>
  <varray name="forces" >
   <v>      -0.41234996      -0.23215161       0.00000000 </v>
   <v>       0.00000000       0.56341161       0.00000000 </v>
   <v>       0.41234996      -0.23215161       0.00000000 </v>
   <v>       0.00000000      -0.09910840       0.00000000 </v>
  </varray>
  <varray name="stress" >
   <v>      -6.59851151       0.00000000       0.00000000 </v>
   <v>       0.00000000      -7.34911574       0.00000000 </v>
   <v>       0.00000000       0.00000000      -4.03617941 </v>
  </varray>
  <energy>
   <i name="e_fr_energy">    -19.26731871 </i>
   <i name="e_wo_entrp">    -19.27118398 </i>
   <i name="e_0_energy">      0.01159581 </i>
  </energy>
  <time name="totalsc">    2.62    2.66</time>
 </calculation>
ame="e_0_energy">    -19.47865659 </i>
 <calculation>
  <scstep>
   <time name="dav">    0.05    0.04</time>
   <time name="total">    0.19    0.19</time>
   <energy>
    <i name="alphaZ">      0.68708806 </i>
    <i name="ewald">     56.13332532 </i>
    <i name="hartreedc">   -308.67310034 </i>
    <i name="XCdc">     28.84952148 </i>
    <i name="pawpsdc">    587.20932560 </i>
    <i name="pawaedc">   -588.84426926 </i>
    <i name="eentropy">      0.01159581 </i>
    <i name="bandstr">    -96.53028377 </i>
    <i name="atom">    301.91090041 </i>
    <i name="e_fr_energy">    -19.24589669 </i>
    <i name="e_wo_entrp">    -19.25749250 </i>
    <i name="e_0_energy">    -19.24976196 </i>
   </energy>
  </scstep>
  <scstep>
   <time name="dav">    0.03    0.04</time>
   <time name="total">    0.19    0.18</time>
   <energy>
    <i name="e_fr_energy">    -19.24517539 </i>
    <i name="e_wo_entrp">    -19.25677120 </i>
    <i name="e_0_energy">    -19.24904066 </i>
   </energy>
  </scstep>
  <scstep>
   <time name="dav">    0.06    0.06</time>
   <time name="total">    0.22    0.22</time>
   <energy>
    <i name="e_fr_energy">    -19.24453623 </i>
    <i name="e_wo_entrp">    -19.25613204 </i>
    <i name="e_0_energy">    -19.24840150 </i>
   </energy>
  </scstep>
  <scstep>
   <time name="dav">    0.05    0.05</time>
   <time name="total">    0.20    0.20</time>
   <energy>
    <i name="e_fr_energy">    -19.24458891 </i>
    <i name="e_wo_entrp">    -19.25618472 </i>
    <i name="e_0_energy">    -19.24845418 </i>
   </energy>
  </scstep>
  <scstep>
   <time name="dav">    0.05    0.06</time>
   <time name="total">    0.19    0.20</time>
   <energy>
    <calculation>
  <scstep>
   <time name="dav">    0.05    0.04</time>
   <time name="total">    0.20    0.21</time>
   <energy>
    <i name="alphaZ">      0.68708806 </i>
    <i name="ewald">     54.29616553 </i>
    <i name="hartreedc">   -307.29694700 </i>
    <i name="XCdc">     28.80690939 </i>
    <i name="pawpsdc">    562.41323399 </i>
    <i name="pawaedc">   -563.96474086 </i>
    <i name="eentropy">      0.01159581 </i>
    <i name="bandstr">    -96.34149397 </i>
    <i name="atom">    301.91090041 </i>
    <i name="e_fr_energy">    -19.47728863 </i>
    <i name="e_wo_entrp">    -19.48888444 </i>
    <i name="e_0_energy">    -19.48115390 </i>
   </energy>
  </scstep>
  <scstep>
   <time name="dav">    0.03    0.04</time>
   <time name="total">    0.19    0.18</time>
   <energy>
    <i name="e_fr_energy">    -19.48467729 </i>
    <i name="e_wo_entrp">    -19.49627310 </i>
    <i name="e_0_energy">    -19.48854256 </i>
   </energy>
  </scstep>
  <scstep>
   <time name="dav">    0.06    0.06</time>
   <time name="total">    0.20    0.20</time>
   <energy>
    <i name="e_fr_energy">    -19.48273230 </i>
    <i name="e_wo_entrp">    -19.49432811 </i>
    <i name="e_0_energy">    -19.48659757 </i>
   </energy>
  </scstep>
  <scstep>
   <time name="dav">    0.05    0.04</time>
   <time name="total">    0.17    0.18</time>
   <energy>
    <i name="e_fr_energy">    -19.48285215 </i>
    <i name="e_wo_entrp">    -19.49444796 </i>
    <i name="e_0_energy">    -19.48671742 </i>
   </energy>
  </scstep>
  <scstep>
   <time name="dav">    0.03    0.03</time>
   <time name="total">    0.16    0.16</time>
   <energy>
    <i name="e_fr_energy">    -19.48287782 </i>
    <i name="e_wo_entrp">    -19.49447363 </i>
    <i name="e_0_energy">    -19.48674309 </i>
   </energy>
  </scstep>
  <scstep>
   <time name="dav">    0.05    0.04</time>
   <time name="total">    0.17    0.17</time>
   <energy>
    <i name="e_fr_energy">    -19.48299607 </i>
    <i name="e_wo_entrp">    -19.49459188 </i>
    <i name="e_0_energy">    -19.48686134 </i>
   </energy>
  </scstep>
  <scstep>
   <time name="dav">    0.05    0.05</time>
   <time name="total">    0.20    0.20</time>
   <energy>
    <i name="e_fr_energy">    -19.48327528 </i>
    <i name="e_wo_entrp">    -19.49487109 </i>
    <i name="e_0_energy">    -19.48714055 </i>
   </energy>
  </scstep>
  <scstep>
   <time name="dav">    0.08    0.06</time>
   <time name="total">    0.20    0.21</time>
   <energy>
    <i n    </varray>
   </crystal>
   <varray name="positions" >
    <v>       0.64735083       0.57295774       0.50000000 </v>
    <v>       0.50000000       0.35621417       0.50000000 </v>
    <v>       0.35264917       0.57295774       0.50000000 </v>
    <v>       0.50000000       0.49776936       0.50000000 </v>
   </varray>
  </structure>
  <varray name="forces" >
   <v>      -0.84921163      -0.59017584       0.00000000 </v>
   <v>       0.00000000      -0.70256876       0.00000000 </v>
   <v>       0.84921163      -0.59017584       0.00000000 </v>
   <v>       0.00000000       1.88292044       0.00000000 </v>
  </varray>
  <varray name="stress" >
   <v>     -10.18063816       0.00000000       0.00000000 </v>
   <v>       0.00000000      -3.20213500       0.00000000 </v>
   <v>       0.00000000       0.00000000      -4.04149554 </v>
  </varray>
  <energy>
   <i name="e_fr_energy">    -19.24462360 </i>
   <i name="e_wo_entrp">    -19.24848887 </i>
   <i name="e_0_energy">      0.01159581 </i>
  </energy>
  <time name="totalsc">    2.75    2.77</time>
 </calculation>
    0.20</time>
   <energy>
    <i name="e_fr_energy">    -19.48349222 </i>
    <i name="e_wo_entrp">    -19.49508803 </i>
    <i name="e_0_energy">    -19.48735749 </i>
   </energy>
  </scstep>
  <scstep>
   <time name="dav">    0.03    0.03</time>
   <time name="total">    0.16    0.15</time>
   <energy>
    <i name="alphaZ">      0.68708806 </i>
    <i name="ewald">     54.29616553 </i>
    <i name="hartreedc">   -306.81005097 </i>
    <i name="XCdc">     28.76764874 </i>
    <i name="pawpsdc">    559.82632631 </i>
    <i name="pawaedc">   -561.35825065 </i>
    <i name="eentropy">      0.01159581 </i>
    <i name="bandstr">    -96.81491597 </i>
    <i name="atom">    301.91090041 </i>
    <i name="e_fr_energy">    -19.48349273 </i>
    <i name="e_wo_entrp">    -19.49508854 </i>
    <i name="e_0_energy">    -19.48735800 </i>
   </energy>
  </scstep>
  <structure>
   <crystal>
    <varray name="basis" >
     <v>       6.00000000       0.00000000       0.00000000 </v>
     <v>       0.00000000       7.00000000       0.00000000 </v>
     <v>       0.00000000       0.00000000       8.00000000 </v>
    </varray>
    <i name="volume">    336.00000000 </i>
    <varray name="rec_basis" >
     <v>       0.16666667       0.00000000       0.00000000 </v>
     <v>       0.00000000       0.14285714       0.00000000 </v>
     <v>       0.00000000       0.00000000       0.12500000 </v>
    </varray>
   </crystal>
   <varray name="positions" >
    <v>       0.63654902       0.56759872       0.47673599 </v>
    <v>       0.50000000       0.36556185       0.47702592 </v>
    <v>       0.36345098       0.56759872       0.47673599 </v>
    <v>       0.50000000       0.49913971       0.52889139 </v>
   </varray>
  </structure>
  <varray name="forces" >
   <v>      -0.31895044      -0.21335730       0.23612367 </v>
   <v>       0.00000000      -0.12074241      -0.00380400 </v>
   <v>       0.31895044      -0.21335730       0.23612367 </v>
   <v>       0.00000000       0.54745701      -0.46844333 </v>
  </varray>
  <varray name="stress" >
   <v>      -5.36387626       0.00000000       0.00000000 </v>
   <v>       0.00000000      -3.76251501       1.09129827 </v>
   <v>       0.00000000       1.09129826      -4.73003063 </v>
  </varray>
  <energy>
   <i name="e_fr_energy">    -19.48349273 </i>
   <i name="e_wo_entrp">    -19.48735800 </i>
   <i name="e_0_energy">      0.01159581 </i>
  </energy>
  <time name="totalsc">    2.77    2.77</time>
 </calculation>
 <calculation>
  <scstep>
   <time name="dav">    0.03    0.04</time>
   <time name="total">    0.16    0.18</time>
   <energy>
    <i name="alphaZ">      0.68708806 </i>
    <i name="ewald">     54.72532347 </i>
    <i name="hartreedc">   -307.65249171 </i>
    <i name="XCdc">     28.83127922 </i>
    <i name="pawpsdc">    559.82240777 </i>
    <i name="pawaedc">   -561.35433433 </i>
    <i name="eentropy">      0.01159581 </i>
    <i name="bandstr">    -96.39770146 </i>
    <i name="atom">    301.91090041 </i>
    <i name="e_fr_energy">    -19.41593275 </i>
    <i name="e_wo_entrp">    -19.42752856 </i>
    <i name="e_0_energy">    -19.41979802 </i>
   </energy>
  </scstep>
  <scstep>
   <time name="dav">    0.06    0.06</time>
   <time name="total">    0.20    0.20</time>
   <energy>
    <i name="e_fr_energy">    -19.42887273 </i>
    <i name="e_wo_entrp">    -19.44046854 </i>
    <i name="e_0_energy">    -19.43273800 </i>
   </energy>
  </scstep>
  <scstep>
   <time name="dav">    0.05    0.05</time>
   <time name="total">    0.19    0.19</time>
   <energy>
    <i name="e_fr_energy">    -19.42538266 </i>
    <i name="e_wo_entrp">    -19.43697847 </i>
    <i name="e_0_energy">    -19.42924793 </i>
   </energy>
  </scstep>
  <scstep>
   <time name="dav">    0.05    0.05</time>
   <time name="total">    0.17    0.18</time>
   <energy>
    <i name="e_fr_energy">    -19.42567286 </i>
    <i name="e_wo_entrp">    -19.43726867 </i>
    <i name="e_0_energy">    -19.42953813 </i>
   </energy>
  </scstep>
  <scstep>
   <time name="dav">    0.05    0.04</time>
   <time name="total">    0.17    0.18</time>
   <energy>
    <i name="e_fr_energy">    -19.42570130 </i>
    <i name="e_wo_entrp">    -19.43729711 </i>
    <i name="e_0_energy">    -19.42956657 </i>
   </energy>
  </scstep>
  <scstep>
   <time name="dav">    0.05    0.04</time>
   <time name="total">    0.17    0.18</time>
   <energy>
    <i name="e_fr_energy">    -19.42586799 </i>
    <i name="e_wo_entrp">    -19.43746380 </i>
    <i name="e_0_energy">    -19.42973326 </i>
   </energy>
  </scstep>
  <scstep>
   <time name="dav">    0.05    0.04</time>
   <time name="total">    0.16    0.19</time>
   <energy>
    <i name="e_fr_energy">    -19.42623234 </i>
    <i name="e_wo_entrp">    -19.43782815 </i>
    <i name="e_0_energy">    -19.43009761 </i>
   </energy>
  </scstep>
  <scstep>
   <time name="dav">    0.05    0.05</time>
   <time name="total">    0.17    0.18</time>
   <energy>
    <i name="e_fr_energy">    -19.42633812 </i>
    <i name="e_wo_entrp">    -19.43793393 </i>
    <i name="e_0_energy">    -19.43020339 </i>
   </energy>
  </scstep>
  <scstep>
   <time name="dav">    0.03    0.04</time>
   <time name="total">    0.19    0.18</time>
   <energy>
    <i name="e_fr_energy">    -19.42644622 </i>
    <i name="e_wo_entrp">    -19.43804204 </i>
    <i name="e_0_energy">    -19.43031149 </i>
   </energy>
  </scstep>
  <scstep>
   <time name="dav">    0.05    0.05</time>
   <time name="total">    0.19    0.19</time>
   <energy>
    <i name="e_fr_energy">    -19.42647329 </i>
    <i name="e_wo_entrp">    -19.43806910 </i>
    <i name="e_0_energy">    -19.43033856 </i>
   </energy>
  </scstep>
  <scstep>
   <time name="dav">    0.05    0.04</time>
   <time name="total">    0.19    0.18</time>
   <energy>
    <i name="e_fr_energy">    -19.42648189 </i>
    <i name="e_wo_entrp">    -19.43807770 </i>
    <i name="e_0_energy">    -19.43034716 </i>
   </energy>
  </scstep>
  <scstep>
   <time name="dav">    0.05    0.04</time>
   <time name="total">    0.16    0.16</time>
   <energy>
    <i name="e_fr_energy">    -19.42648343 </i>
    <i name="e_wo_entrp">    -19.43807924 </i>
    <i name="e_0_energy">    -19.43034870 </i>
   </energy>
  </scstep>
  <scstep>
   <time name="dav">    0.05    0.04</time>
   <time name="total">    0.16    0.15</time>
   <energy>
    <i name="alphaZ">      0.68708806 </i>
    <i name="ewald">     54.72532347 </i>
    <i name="hartreedc">   -306.94084103 </i>
    <i name="XCdc">     28.76964999 </i>
    <i name="pawpsdc">    554.85955174 </i>
       <v>       0.50000000       0.50265603       0.50000000 </v>
   </varray>
  </structure>
  <varray name="forces" >
   <v>       0.39474679       0.32113672       0.00000000 </v>
   <v>      -0.00000000       1.39275894       0.00000000 </v>
   <v>      -0.39474679       0.32113672       0.00000000 </v>
   <v>      -0.00000000      -2.03503237       0.00000000 </v>
  </varray>
  <varray name="stress" >
   <v>      -0.05569518       0.00000000       0.00000000 </v>
   <v>       0.00000000      -8.88178753       0.00000000 </v>
   <v>       0.00000000       0.00000000      -4.03561543 </v>
  </varray>
  <energy>
   <i name="e_fr_energy">    -19.24484183 </i>
   <i name="e_wo_entrp">    -19.24870710 </i>
   <i name="e_0_energy">      0.01159581 </i>
  </energy>
  <time name="totalsc">    2.73    2.83</time>
 </calculation>
   0.00000000       0.12500000 </v>
    </varray>
   </crystal>
   <varray name="positions" >
    <v>       0.63122049       0.56492217       0.47667333 </v>
    <v>       0.50000000       0.36975630       0.47645300 </v>
    <v>       0.36877951       0.56492217       0.47667333 </v>
    <v>       0.50000000       0.50029835       0.53803226 </v>
   </varray>
  </structure>
  <varray name="forces" >
   <v>       0.20259563       0.12213311       0.37053521 </v>
   <v>       0.00000000      -0.04705819       0.46943375 </v>
   <v>      -0.20259563       0.12213311       0.37053521 </v>
   <v>       0.00000000      -0.19720803      -1.21050417 </v>
  </varray>
  <varray name="stress" >
   <v>      -1.37484049       0.00000000       0.00000000 </v>
   <v>       0.00000000      -2.53371009      -0.43026949 </v>
   <v>       0.00000000      -0.43026949      -6.62351424 </v>
  </varray>
  <energy>
   <i name="e_fr_energy">    -19.42648378 </i>
   <i name="e_wo_entrp">    -19.43034905 </i>
   <i name="e_0_energy">      0.01159581 </i>
  </energy>
  <time name="totalsc">    2.75    2.82</time>
 </calculation>
 <calculation>
  <scstep>
   <time name="dav">    0.05    0.05</time>
   <time name="total">    0.20    0.20</time>
   <energy>
    <i name="alphaZ">      0.68708806 </i>
    <i name="ewald">     56.72005652 </i>
    <i name="hartreedc">   -307.39942606 </i>
    <i name="XCdc">     28.77831346 </i>
    <i name="pawpsdc">    554.85193326 </i>
    <i name="pawaedc">   -556.35873965 </i>
    <i name="eentropy">      0.01159581 </i>
    <i name="bandstr">    -98.67976131 </i>
    <i name="atom">    301.91090041 </i>
    <i name="e_fr_energy">    -19.47803950 </i>
    <i name="e_wo_entrp">    -19.48963531 </i>
    <i name="e_0_energy">    -19.48190477 </i>
   </energy>
  </scstep>
  <scstep>
   <time name="dav">    0.05    0.06</time>
   <time name="total">    0.20    0.20</time>
   <energy>
    <i name="e_fr_energy">    -19.47987598 </i>
    <i name="e_wo_entrp">    -19.49147179 </i>
    <i name="e_0_energy">    -19.48374125 </i>
   </energy>
  </scstep>
  <scstep>
   <time name="dav">    0.06    0.07</time>
   <time name="total">    0.23    0.22</time>
   <energy>
    <i name="e_fr_energy">    -19.47824152 </i>
    <i name="e_wo_entrp">    -19.48983733 </i>
    <i name="e_0_energy">    -19.48210679 </i>
   </energy>
  </scstep>
  <scstep>
   <time name="dav">    0.09    0.10</time>
   <time name="total">    0.25    0.30</time>
   <energy>
    <i name="e_fr_energy">    -19.47828923 </i>
    <i name="e_wo_entrp">    -19.48988504 </i>
    <i name="e_0_energy">    -19.48215450 </i>
   </energy>
  </scstep>
  <scstep>
   <time name="dav">    0.05    0.05</time>
   <time name="total">    0.22    0.22</time>
   <energy>
    <i name="e_fr_energy">    -19.47838421 </i>
    <i name="e_wo_entrp">    -19.48998002 </i>
    <i name="e_0_energy">    -19.48224948 </i>
   </energy>
  </scstep>
  <scstep>
   <time name="dav">    0.05    0.05</time>
   <time name="total">    0.19    0.19</time>
   <energy>
    <i name="e_fr_energy">    -19.47849258 </i>
    <i name="e_wo_entrp">    -19.49008839 </i>
    <i name="e_0_energy">    -19.48235785 </i>
   </energy>
  </scstep>
  <scstep>
   <time name="dav">    0.05    0.04</time>
   <time name="total">    0.19    0.19</time>
   <energy>
    <i name="e_fr_energy">    -19.47861032 </i>
    <i name="e_wo_entrp">    -19.49020613 </i>
    <i name="e_0_energy">    -19.48247559 </i>
   </energy>
  </scstep>
  <scstep>
   <time name="dav">    0.06    0.05</time>
   <time name="total">    0.20    0.20</time>
   <energy>
    <i name="e_fr_energy">    -19.47866314 </i>
    <i name="e_wo_entrp">    -19.49025895 </i>
    <i name="e_0_energy">    -19.48252841 </i>
   </energy>
  </scstep>
  <scstep>
   <time name="dav">    0.03    0.04</time>
   <time name="total">    0.20    0.20</time>
   <energy>
    <i name="e_fr_energy">    -19.47868658 </i>
    <i name="e_wo_entrp">    -19.49028239 </i>
    <i name="e_0_energy">    -19.48255185 </i>
   </energy>
  </scstep>
  <scstep>
   <time name="dav">    0.03    0.04</time>
   <time name="total">    0.17    0.18</time>
   <energy>
    <i name="e_fr_energy">    -19.47869245 </i>
    <i name="e_wo_entrp">    -19.49028826 </i>
    <i name="e_0_energy">    -19.48255772 </i>
   </energy>
  </scstep>
  <scstep>
   <time name="dav">    0.05    0.04</time>
   <time name="total">    0.19    0.18</time>
   <energy>
    <i name="e_fr_energy">    -19.47869435 </i>
    <i name="e_wo_entrp">    -19.49029016 </i>
    <i name="e_0_energy">    -19.48255962 </i>
   </energy>
  </scstep>
  <scstep>
   <time name="dav">    0.05    0.04</time>
   <time name="total">    0.16    0.15</time>
   <energy>
    <i name="alphaZ">      0.68708806 </i>
    <i name="ewald">     56.72005652 </i>
    <i name="hartreedc">   -308.75119361 </i>
    <i name="XCdc">     28.87051187 </i>
    <i name="pawpsdc">    570.31199302 </i>
    <i name="pawaedc">   -571.85066316 </i>
    <i name="eentropy">      0.01159581 </i>
    <i name="bandstr">    -97.38898370 </i>
    <i name="atom">    301.91090041 </i>
    <i name="e_fr_energy">    -19.47869478 </i>
    <i name="e_wo_entrp">    -19.49029059 </i>
    <i name="e_0_energy">    -19.48256005 </      </energy>
  </scstep>
  <structure>
   <crystal>
    <varray name="basis" >
     <v>       6.00000000       0.00000000       0.00000000 </v>
     <v>       0.00000000       7.00000000       0.00000000 </v>
     <v>       0.00000000       0.00000000       8.00000000 </v>
    </varray>
    <i name="volume">    336.00000000 </i>
    <varray name="rec_basis" >
     <v>       0.16666667       0.00000000       0.00000000 </v>
     <v>       0.00000000       0.14285714       0.00000000 </v>
     <v>       0.00000000       0.00000000       0.12500000 </v>
    </varray>
   </crystal>
   <varray name="positions" >
    <v>       0.63362464       0.56607801       0.52395405 </v>
    <v>       0.50000000       0.36722098       0.52424856 </v>
    <v>       0.36637536       0.56607801       0.52395405 </v>
    <v>       0.50000000       0.50052201       0.47014203 </v>
   </varray>
  </structure>
  <varray name="forces" >
   <v>       0.32146614       0.20027925      -0.01943663 </v>
   <v>       0.00000000      -0.04258380      -0.18237137 </v>
   <v>      -0.32146614        <calculation>
  <scstep>
   <time name="dav">    0.05    0.04</time>
   <time name="total">    0.20    0.20</time>
   <energy>
    <i name="alphaZ">      0.68708806 </i>
    <i name="ewald">     62.48059795 </i>
    <i name="hartreedc">   -312.60786791 </i>
    <i name="XCdc">     29.06234661 </i>
    <i name="pawpsdc">    598.72152355 </i>
    <i name="pawaedc">   -600.36761457 </i>
    <i name="eentropy">      0.01159581 </i>
    <i name="bandstr">    -99.13815442 </i>
    <i name="atom">    301.91090041 </i>
    <i name="e_fr_energy">    -19.23958450 <calculation>
  <scstep>
   <time name="dav">    0.05    0.04</time>
   <time name="total">    0.19    0.20</time>
   <energy>
    <i name="alphaZ">      0.68708806 </i>
    <i name="ewald">     53.96361250 </i>
    <i name="hartreedc">   -305.29474290 </i>
    <i name="XCdc">     28.66071039 </i>
    <i name="pawpsdc">    570.30799633 </i>
    <i name="pawaedc">   -571.84666737 </i>
    <i name="eentropy">      0.01159581 </i>
    <i name="bandstr">    -97.61822066 </i>
    <i name="atom">    301.91090041 </i>
    <i name="e_fr_energy">    -19.21772744 </i>
    <i name="e_wo_entrp">    -19.22932325 </i>
    <i name="e_0_energy">    -19.22159271 </i>
   </energy>
  </scstep>
  <scstep>
   <time name="dav">    0.05    0.04</time>
   <time name="total">    0.20    0.20</time>
   <energy>
    <i name="e_fr_energy">    -19.31846176 </i>
    <i name="e_wo_entrp">    -19.33005757 </i>
    <i name="e_0_energy">    -19.32232703 </i>
   </energy>
  </scstep>
  <scstep>
   <time name="dav">    0.08    0.07</time>
   <time name="total">    0.22    0.22</time>
   <energy>
    <i name="e_fr_energy">    -19.29724407 </i>
    <i name="e_wo_entrp">    -19.30883988 </i>
    <i name="e_0_energy">    -19.30110934 </i>
   </energy>
  </scstep>
  <scstep>
   <time name="dav">    0.03    0.03</time>
   <time name="total">    0.16    0.16</time>
   <energy>
    <i name="e_fr_energy">    -19.29422610 </i>
    <i name="e_wo_entrp">    -19.30582191 </i>
    <i name="e_0_energy">    -19.29809137 </i>
   </energy>
  </scstep>
  <scstep>
   <time name="dav">    0.05    0.06</time>
   <time name="total">    0.20    0.19</time>
   <energy>
    <i name="e_fr_energy">    -19.29495257 </i>
    <i name="e_wo_entrp">    -19.30654838 </i>
    <i name="e_0_energy">    -19.29881784 </i>
   </energy>
  </scstep>
  <scstep>
   <time name="dav">    0.03    0.04</time>
   <time name="total">    0.17    0.18</time>
   <energy>
    <i name="e_fr_energy">    -19.29541525 </i>
    <i name="e_wo_entrp">    -19.30701106 </i>
    <i name="e_0_energy">    -19.29928052 </i>
   </energy>
  </scstep>
  <scstep>
   <time name="dav">    0.03    0.04</time>
   <time name="total">    0.17    0.17</time>
   <energy>
    <i name="e_fr_energy">    -19.29649417 </i>
    <i name="e_wo_entrp">    -19.30808999 </i>
    <i name="e_0_energy">    -19.30035945 </i>
   </energy>
  </scstep>
  <scstep>
   <time name="dav">    0.03    0.04</time>
   <time name="total">    0.19    0.18</time>
   <energy>
    <i name="e_fr_energy">    -19.29723529 </i>
    <i name="e_wo_entrp">    -19.30883110 </i>
    <i name="e_0_energy">    -19.30110056 </i>
   </energy>
  </scstep>
  <scstep>
   <time name="dav">    0.03    0.04</time>
   <time name="total">    0.17    0.18</time>
   <energy>
    <i name="e_fr_energy">    -19.29745505 </i>
    <i name="e_wo_entrp">    -19.30905086 </i>
    <i name="e_0_energy">    -19.30132032 </i>
   </energy>
  </scstep>
  <scstep>
   <time name="dav">    0.05    0.05</time>
   <time name="total">    0.19    0.19</time>
   <energy>
    <i name="e_fr_energy">    -19.29758372 </i>
    <i name="e_wo_entrp">    -19.30917953 </i>
    <i name="e_0_energy">    -19.30144899 </i>
   </energy>
  </scstep>
  <scstep>
   <time name="dav">    0.05    0.05</time>
   <time name="total">    0.19    0.20</time>
   <energy>
    <i name="e_fr_energy">    -19.29760267 </i>
    <i name="e_wo_entrp">    -19.30919848 </i>
    <i name="e_0_energy">    -19.30146794 </i>
   </energy>
  </scstep>
  <scstep>
   <time name="dav">    0.03    0.03</time>
   <time name="total">      </varray>
    <i name="volume">    336.00000000 </i>
    <varray name="rec_basis" >
     <v>       0.16666667       0.00000000       0.00000000 </v>
     <v>       0.00000000       0.14285714       0.00000000 </v>
     <v>       0.00000000       0.00000000       0.12500000 </v>
    </varray>
   </crystal>
   <varray name="positions" >
    <v>       0.64334648       0.57100615       0.50000000 </v>
    <v>       0.50000000       0.35996273       0.50000000 </v>
    <v>       0.35665352       0.57100615       0.50000000 </v>
    <v>       0.50000000       0.49792397       0.50000000 </v>
   </varray>
  </structure>
  <varray name="forces" >
   <v>       0.22113711       0.04302052       0.00000000 </v>
   <v>       0.00000000      -2.09726056       0.00000000 </v>
   <v>      -0.22113711       0.04302052       0.00000000 </v>
   <v>       0.00000000       2.01121952       0.00000000 </v>
  </varray>
  <varray name="stress" >
   <v>      -1.54815763       0.00000000       0.00000000 </v>
   <v>       0.00000000       6.06001430       0.00000000 </v>
   <v>       0.00000000       0.00000000      -4.13873989 </v>
  </varray>
  <energy>
   <i name="e_fr_energy">    -19.23409028 </i>
   <i name="e_wo_entrp">    -19.23795555 </i>
   <i name="e_0_energy">      0.01159581 </i>
  </energy>
  <time name="totalsc">    3.16    3.18</time>
 </calculation>
   0.00000000       0.12500000 </v>
    </varray>
   </crystal>
   <varray name="positions" >
    <v>       0.64520065       0.57200194       0.52606336 </v>
    <v>       0.50000000       0.36085772       0.52408199 </v>
    <v>       0.35479935       0.57200194       0.52606336 </v>
    <v>       0.50000000       0.49503741       0.49254677 </v>
   </varray>
  </structure>
  <varray name="forces" >
   <v>      -1.40719299      -1.04120980      -0.17405692 </v>
   <v>       0.00000000      -1.90205220       0.90635784 </v>
   <v>       1.40719299      -1.04120980      -0.17405692 </v>
   <v>       0.00000000       3.98447180      -0.55824399 </v>
  </varray>
  <varray name="stress" >
   <v>     -14.41094627       0.00000000       0.00000000 </v>
   <v>       0.00000000      -0.30756590      -4.88343408 </v>
   <v>       0.00000000      -4.88343409      -3.26874419 </v>
  </varray>
  <energy>
   <i name="e_fr_energy">    -19.29760375 </i>
   <i name="e_wo_entrp">    -19.30146902 </i>
   <i name="e_0_energy">      0.01159581 </i>
  </energy>
  <time name="totalsc">    3.09    3.15</time>
 </calculation>
 <calculation>
  <scstep>
   <time name="dav">    0.03    0.04</time>
   <time name="total">    0.19    0.18</time>
   <energy>
    <i name="alphaZ">      0.68708806 </i>
    <i name="ewald">     55.97022807 </i>
    <i name="hartreedc">   -308.64753749 </i>
    <i name="XCdc">     28.88784095 </i>
    <i name="pawpsdc">    569.31646452 </i>
    <i name="pawaedc">   -570.90053291 </i>
    <i name="eentropy">      0.01159581 </i>
    <i name="bandstr">    -96.66914312 </i>
    <i name="atom">    301.91090041 </i>
    <i name="e_fr_energy">    -19.43309570 </i>
    <i name="e_wo_entrp">    -19.44469151 </i>
    <i name="e_0_energy">    -19.43696097 </i>
   </energy>
  </scstep>
  <scstep>
   <time name="dav">    0.05    0.05</time>
   <time name="total">    0.17    0.19</time>
   <energy>
    <i name="e_fr_energy">    -19.50959556 </i>
    <i name="e_wo_entrp">    -19.52119137 </i>
    <i name="e_0_energy">    -19.51346083 </i>
[...]
    <v>       0.64512953       0.57175060       0.49999978 </v>
    <v>       0.50000000       0.35637264       0.49999970 </v>
    <v>       0.35487047       0.57175060       0.49999978 </v>
    <v>       0.50000000       0.50002516       0.50000204 </v>
   </varray>
  </structure>
  <varray name="forces" >
   <v>      -0.00364837      -0.00282740       0.00000000 </v>
   <v>       0.00000000       0.00521834       0.00000000 </v>
   <v>       0.00364837      -0.00282740       0.00000000 </v>
   <v>       0.00000000       0.00043647       0.00000000 </v>
  </varray>
  <varray name="stress" >
   <v>      -3.28267225       0.00000000       0.00000000 </v>
   <v>       0.00000000      -3.62618227       0.00000000 </v>
   <v>       0.00000000       0.00000000      -4.06601554 </v>
  </varray>
  <energy>
   <i name="e_fr_energy">    -19.27591934 </i>
   <i name="e_wo_entrp">    -19.27978461 </i>
   <i name="e_0_energy">      0.01159581 </i>
  </energy>
  <time name="totalsc">    2.52    2.54</time>
  <eigenvalues>
   <array>
    <dimension dim="1">band</dimension>
    <dimension dim="2">kpoint</dimension>
    <dimension dim="3">spin</dimension>
    <field>eigene</field>
    <field>occ</field>
    <set>
     <set comment="spin 1">
      <set comment="kpoint 1">
       <r>  -20.4522    1.0000 </r>
       <r>  -11.4995    1.0000 </r>
       <r>  -11.4973    1.0000 </r>
       <r>   -5.0934    1.0000 </r>
       <r>   -1.1083   -0.0000 </r>
       <r>    1.3575    0.0000 </r>
       <r>    1.6601    0.0000 </r>
       <r>    1.7229    0.0000 </r>
      </set>
     </set>
    </set>
   </array>
  </eigenvalues>
  <separator name="orbital magnetization" >
   <v name="MAGDIPOLOUT">      0.00000000      0.00000000      0.00000000</v>
  </separator>
  <dos>
   <i name="efermi">     -4.92501518 </i>
   <total>
    <array>
     <dimension dim="1">gridpoints</dimension>
     <dimens    </varray>
    <i name="volume">    336.00000000 </i>
    <varray name="rec_basis" >
     <v>       0.16666667       0.00000000       0.00000000 </v>
     <v>       0.00000000       0.14285714       0.00000000 </v>
     <v>       0.00000000       0.00000000       0.12500000 </v>
    </varray>
   </crystal>
   <varray name="positions" >
    <v>       0.63642634       0.56746503       0.52410412 </v>
    <v>       0.50000000       0.36492514       0.52391734 </v>
    <v>       0.36357366       0.56746503       0.52410412 </v>
    <v>       0.50000000       0.50004380       0.47498580 </v>
   </varray>
  </structure>
  <varray name="forces" >
   <v>       0.00881524       0.00549151      -0.00066126 </v>
   <v>       0.00000000      -0.01076448       0.00069989 </v>
   <v>      -0.00881524       0.00549151      -0.00066126 </v>
   <v>       0.00000000      -0.00021854       0.00062263 </v>
  </varray>
  <varray name="stress" >
   <v>      -2.93791436       0.00000000       0.00000000 </v>
   <v>       0.00000000      -3.31387430      -0.03036929 </v>
   <v>       0.00000000      -0.03036929      -3.86908134 </v>
  </varray>
  <energy>
   <i name="e_fr_energy">    -19.49164066 </i>
   <i name="e_wo_entrp">    -19.49550593 </i>
   <i name="e_0_energy">      0.01159581 </i>
  </energy>
  <time name="totalsc">    2.52    2.54</time>
  <eigenvalues>
   <array>
    <dimension dim="1">band</dimension>
    <dimension dim="2">kpoint</dimension>
    <dimension dim="3">spin</dimension>
    <field>eigene</field>
    <field>occ</field>
    <set>
     <set comment="spin 1">
      <set comment="kpoint 1">
       <r>  -20.8496    1.0000 </r>
       <r>  -10.9234    1.0000 </r>
       <r>  -10.9194    1.0000 </r>
       <r>   -5.8833    1.0000 </r>
       <r>   -1.1364   -0.0000 </r>
       <r>    1.4665    0.0000 </r>
       <r>    1.6387    0.0000 </r>
       <r>    1.7674    0.0000 </r>
      </set>
     </set>
    </set>
   </array>
  </eigenvalues>
  <separator name="orbital magnetization" >
   <v name="MAGDIPOLOUT">      0.00000000      0.00000000      0.00000000</v>
  </separator>
  <dos>
   <i name="efermi">     -5.71490649 </i>
   <total>
    <array>
     <dimension dim="1">gridpoints</dimension>
     <dimension dim="2">spin</dimension>
     <field>energy</field>
     <field>total</field>
     <field>integrated</field>
     <set>
      <set comment="spin 1">
       <r>   -22.8496     0.0000     0.0000 </r>
       <r>   -22.7609     0.0000     0.0000 </r>
       <r>   -22.6721     0.0000     0.0000 </r>
       <r>   -22.5834     0.0000     0.0000 </r>
       <r>   -22.4947    -0.0000    -0.0000 </r>
       <r>   -22.4060    -0.0000    -0.0000 </r>
       <r>   -22.3172    -0.0000    -0.0000 </r>
       <r>   -22.2285    -0.0000    -0.0000 </r>
       <r>   -22.1398    -0.0000    -0.0000 </r>
       <r>   -22.0511    -0.0000    -0.0000 </r>
       <r>   -21.9623    -0.0000    -0.0000 </r>
       <r>   -21.8736    -0.0000    -0.0000 </r>
       <r>   -21.7849    -0.0000    -0.0000 </r>
       <r>   -21.6962    -0.0000    -0.0000 </r>
       <r>   -21.6075    -0.0000    -0.0000 </r>
       <r>   -21.5187    -0.0003    -0.0000 </r>
       <r>   -21.4300    -0.0033    -0.0003 </r>
       <r>   -21.3413    -0.0278    -0.0028 </r>
       <r>   -21.2526    -0.1403    -0.0152 </r>
       <r>   -21.1638    -0.3782    -0.0488 </r>
       <r>   -21.0751    -0.2122    -0.0676 </r>
       <r>   -20.9864     1.7948     0.0916 </r>
       <r>   -20.8977     5.7951     0.6058 </r>
       <r>   -20.8089     8.2317     1.3361 </r>
       <r>   -20.7202     6.1279     1.8798 </r>
       <r>   -20.6315     2.0793     2.0643 </r>
       <r>   -20.5428    -0.1359     2.0522 </r>
       <r>   -20.4541    -0.3950     2.0172 </r>
       <r>   -20.3653    -0.1568     2.0033 </r>
       <r>   -20.2766    -0.0324     2.0004 </r>
       <r>   -20.1879    -0.0041     2.0000 </r>
       <r>   -20.0992    -0.0003     2.0000 </r>
       <r>   -20.0104    -0.0000     2.0000 </r>
       <r>   -19.9217    -0.0000     2.0000 </r>
       <r>   -19.8330    -0.0000     2.0000 </r>
       <r>   -19.7443    -0.0000     2.0000 </r>
       <r>   -19.6555    -0.0000     2.0000 </r>
       <r>   -19.5668    -0.0000     2.0000 </r>
       <r>   -19.4781     0.0000     2.0000 </r>
       <r>   -19.3894     0.0000     2.0000 </r>
       <r>   -19.3007     0.0000     2.0000 </r>
       <r>   -19.2119     0.0000     2.0000 </r>
       <r>   -19.1232     0.0000     2.0000 </r>
       <r>   -19.0345     0.0000     2.0000 </r>
       <r>   -18.9458     0.0000     2.0000 </r>
       <r>   -18.8570     0.0000     2.0000 </r>
       <r>   -18.7683     0.0000     2.0000 </r>
       <r>   -18.6796     0.0000     2.0000 </r>
       <r>   -18.5909     0.0000     2.0000 </r>
       <r>   -18.5021     0.0000     2.0000 </r>
       <r>   -18.4134     0.0000     2.0000 </r>
       <r>   -18.3247     0.0000     2.0000 </r>
       <r>   -18.2360     0.0000     2.0000 </r>
       <r>   -18.1472     0.0000     2.0000 </r>
       <r>   -18.0585     0.0000     2.0000 </r>
       <r>   -17.9698     0.0000     2.0000 </r>
       <r>   -17.8811     0.0000     2.0000 </r>
       <r>   -17.7924     0.0000     2.0000 </r>
       <r>   -17.7036     0.0000     2.0000 </r>
       <r>   -17.6149     0.0000     2.0000 </r>
       <r>   -17.5262     0.0000     2.0000 </r>
       <r>   -17.4375     0.0000     2.0000 </r>
       <r>   -17.3487     0.0000     2.0000 </r>
       <r>   -17.2600     0.0000     2.0000 </r>
       <r>   -17.1713     0.0000     2.0000 </r>
       <r>   -17.0826     0.0000     2.0000 </r>
       <r>   -16.9938     0.0000     2.0000 </r>
       <r>   -16.9051     0.0000     2.0000 </r>
       <r>   -16.8164     0.0000     2.0000 </r>
       <r>   -16.7277     0.0000     2.0000 </r>
       <r>   -16.6390     0.0000     2.0000 </r>
       <r>   -16.5502     0.0000     2.0000 </r>
       <r>   -16.4615     0.0000     2.0000 </r>
       <r>   -16.3728     0.0000     2.0000 </r>
       <r>   -16.2841     0.0000     2.0000 </r>
       <r>   -16.1953     0.0000     2.0000 </r>
       <r>   -16.1066     0.0000     2.0000 </r>
       <r>   -16.0179     0.0000     2.0000 </r>
       <r>   -15.9292     0.0000     2.0000 </r>
       <r>   -15.8404     0.0000     2.0000 </r>
       <r>   -15.7517     0.0000     2.0000 </r>
       <r>   -15.6630     0.0000     2.0000 </r>
       <r>   -15.5743     0.0000     2.0000 </r>
       <r>   -15.4856     0.0000     2.0000 </r>
       <r>   -15.3968     0.0000     2.0000 </r>
       <r>   -15.3081     0.0000     2.0000 </r>
       <r>   -15.2194     0.0000     2.0000 </r>
       <r>   -15.1307     0.0000     2.0000 </r>
       <r>   -15.0419     0.0000     2.0000 </r>
       <r>   -14.9532     0.0000     2.0000 </r>
       <r>   -14.8645     0.0000     2.0000 </r>
       <r>   -14.7758     0.0000     2.0000 </r>
       <r>   -14.6870     0.0000     2.0000 </r>
       <r>   -14.5983     0.0000     2.0000 </r>
       <r>   -14.5096     0.0000     2.0000 </r>
       <r>   -14.4209     0.0000     2.0000 </r>
       <r>   -14.3322     0.0000     2.0000 </r>
       <r>   -14.2434     0.0000     2.0000 </r>
       <r>   -14.1547     0.0000     2.0000 </r>
       <r>   -14.0660     0.0000     2.0000 </r>
       <r>   -13.9773     0.0000     2.0000 </r>
       <r>   -13.8885     0.0000     2.0000 </r>
       <r>   -13.7998     0.0000     2.0000 </r>
       <r>   -13.7111     0.0000     2.0000 </r>
       <r>   -13.6224     0.0000     2.0000 </r>
       <r>   -13.5336     0.0000     2.0000 </r>
       <r>   -13.4449     0.0000     2.0000 </r>
       <r>   -13.3562     0.0000     2.0000 </r>
       <r>   -13.2675     0.0000     2.0000 </r>
       <r>   -13.1788     0.0000     2.0000 </r>
       <r>   -13.0900     0.0000     2.0000 </r>
       <r>   -13.0013     0.0000     2.0000 </r>
       <r>   -12.9126     0.0000     2.0000 </r>
       <r>   -12.8239     0.0000     2.0000 </r>
       <r>   -12.7351     0.0000     2.0000 </r>
       <r>   -12.6464     0.0000     2.0000 </r>
       <r>   -12.5577    -0.0000     2.0000 </r>
       <r>   -12.4690    -0.0000     2.0000 </r>
       <r>   -12.3802    -0.0000     2.0000 </r>
       <r>   -12.2915    -0.0000     2.0000 </r>
       <r>   -12.2028    -0.0000     2.0000 </r>
       <r>   -12.1141    -0.0000     2.0000 </r>
       <r>   -12.0254    -0.0000     2.0000 </r>
       <r>   -11.9366    -0.0000     2.0000 </r>
       <r>   -11.8479    -0.0000     2.0000 </r>
       <r>   -11.7592    -0.0000     2.0000 </r>
       <r>   -11.6705    -0.0000     2.0000 </r>
       <r>   -11.5817    -0.0007     1.9999 </r>
       <r>   -11.4930    -0.0084     1.9992 </r>
       <r>   -11.4043    -0.0668     1.9933 </r>
       <r>   -11.3156    -0.3199     1.9649 </r>
       <r>   -11.2268    -0.7955     1.8943 </r>
       <r>   -11.1381    -0.2395     1.8730 </r>
       <r>   -11.0494     4.2685     2.2518 </r>
       <r>   -10.9607    12.3749     3.3497 </r>
       <r>   -10.8719    16.4527     4.8094 </r>
       <r>   -10.7832    11.4636     5.8265 </r>
       <r>   -10.6945     3.4892     6.1361 </r>
       <r>   -10.6058    -0.4486     6.0963 </r>
       <r>   -10.5171    -0.7496     6.0298 </r>
       <r>   -10.4283    -0.2749     6.0054 </r>
       <r>   -10.3396    -0.0539     6.0006 </r>
       <r>   -10.2509    -0.0064     6.0000 </r>
       <r>   -10.1622    -0.0005     6.0000 </r>
       <r>   -10.0734    -0.0000     6.0000 </r>
       <r>    -9.9847    -0.0000     6.0000 </r>
       <r>    -9.8960    -0.0000     6.0000 </r>
       <r>    -9.8073    -0.0000     6.0000 </r>
       <r>    -9.7185    -0.0000     6.0000 </r>
       <r>    -9.6298    -0.0000     6.0000 </r>
       <r>    -9.5411     0.0000     6.0000 </r>
       <r>    -9.4524     0.0000     6.0000 </r>
       <r>    -9.3637     0.0000     6.0000 </r>
       <r>    -9.2749     0.0000     6.0000 </r>
       <r>    -9.1862     0.0000     6.0000 </r>
       <r>    -9.0975     0.0000     6.0000 </r>
       <r>    -9.0088     0.0000     6.0000 </r>
       <r>    -8.9200     0.0000     6.0000 </r>
       <r>    -8.8313     0.0000     6.0000 </r>
       <r>    -8.7426     0.0000     6.0000 </r>
       <r>    -8.6539     0.0000     6.0000 </r>
       <r>    -8.5651     0.0000     6.0000 </r>
       <r>    -8.4764     0.0000     6.0000 </r>
       <r>    -8.3877     0.0000     6.0000 </r>
       <r>    -8.2990     0.0000     6.0000 </r>
       <r>    -8.2103     0.0000     6.0000 </r>
       <r>    -8.1215     0.0000     6.0000 </r>
       <r>    -8.0328     0.0000     6.0000 </r>
       <r>    -7.9441     0.0000     6.0000 </r>
       <r>    -7.8554     0.0000     6.0000 </r>
       <r>    -7.7666     0.0000     6.0000 </r>
       <r>    -7.6779     0.0000     6.0000 </r>
       <r>    -7.5892     0.0000     6.0000 </r>
       <r>    -7.5005    -0.0000     6.0000 </r>
       <r>    -7.4117    -0.0000     6.0000 </r>
       <r>    -7.3230    -0.0000     6.0000 </r>
       <r>    -7.2343    -0.0000     6.0000 </r>
       <r>    -7.1456    -0.0000     6.0000 </r>
       <r>    -7.0569    -0.0000     6.0000 </r>
       <r>    -6.9681    -0.0000     6.0000 </r>
       <r>    -6.8794    -0.0000     6.0000 </r>
       <r>    -6.7907    -0.0000     6.0000 </r>
       <r>    -6.7020    -0.0000     6.0000 </r>
       <r>    -6.6132    -0.0000     6.0000 </r>
       <r>    -6.5245    -0.0006     5.9999 </r>
       <r>    -6.4358    -0.0068     5.9993 </r>
       <r>    -6.3471    -0.0489     5.9950 </r>
       <r>    -6.2583    -0.2075     5.9766 </r>
       <r>    -6.1696    -0.4249     5.9389 </r>
       <r>    -6.0809     0.1513     5.9523 </r>
       <r>    -5.9922     2.9375     6.2129 </r>
       <r>    -5.9035     6.9580     6.8303 </r>
       <r>    -5.8147     8.0455     7.5441 </r>
       <r>    -5.7260     4.8338     7.9730 </r>
       <r>    -5.6373     1.1039     8.0709 </r>
       <r>    -5.5486    -0.3549     8.0394 </r>
       <r>    -5.4598    -0.3232     8.0108 </r>
       <r>    -5.3711    -0.1014     8.0018 </r>
       <r>    -5.2824    -0.0178     8.0002 </r>
       <r>    -5.1937    -0.0019     8.0000 </r>
       <r>    -5.1049    -0.0001     8.0000 </r>
       <r>    -5.0162    -0.0000     8.0000 </r>
       <r>    -4.9275    -0.0000     8.0000 </r>
       <r>    -4.8388    -0.0000     8.0000 </r>
       <r>    -4.7501    -0.0000     8.0000 </r>
       <r>    -4.6613    -0.0000     8.0000 </r>
       <r>    -4.5726     0.0000     8.0000 </r>
       <r>    -4.4839     0.0000     8.0000 </r>
       <r>    -4.3952     0.0000     8.0000 </r>
       <r>    -4.3064     0.0000     8.0000 </r>
       <r>    -4.2177     0.0000     8.0000 </r>
       <r>    -4.1290     0.0000     8.0000 </r>
       <r>    -4.0403     0.0000     8.0000 </r>
       <r>    -3.9515     0.0000     8.0000 </r>
       <r>    -3.8628     0.0000     8.0000 </r>
       <r>    -3.7741     0.0000     8.0000 </r>
       <r>    -3.6854     0.0000     8.0000 </r>
       <r>    -3.5966     0.0000     8.0000 </r>
       <r>    -3.5079     0.0000     8.0000 </r>
       <r>    -3.4192     0.0000     8.0000 </r>
       <r>    -3.3305     0.0000     8.0000 </r>
       <r>    -3.2418     0.0000     8.0000 </r>
       <r>    -3.1530     0.0000     8.0000 </r>
       <r>    -3.0643     0.0000     8.0000 </r>
       <r>    -2.9756     0.0000     8.0000 </r>
       <r>    -2.8869     0.0000     8.0000 </r>
       <r>    -2.7981    -0.0000     8.0000 </r>
       <r>    -2.7094    -0.0000     8.0000 </r>
       <r>    -2.6207    -0.0000     8.0000 </r>
       <r>    -2.5320    -0.0000     8.0000 </r>
       <r>    -2.4432    -0.0000     8.0000 </r>
       <r>    -2.3545    -0.0000     8.0000 </r>
       <r>    -2.2658    -0.0000     8.0000 </r>
       <r>    -2.1771    -0.0000     8.0000 </r>
       <r>    -2.0884    -0.0000     8.0000 </r>
       <r>    -1.9996    -0.0000     8.0000 </r>
       <r>    -1.9109    -0.0000     8.0000 </r>
       <r>    -1.8222    -0.0001     8.0000 </r>
       <r>    -1.7335    -0.0021     7.9998 </r>
       <r>    -1.6447    -0.0193     7.9981 </r>
       <r>    -1.5560    -0.1080     7.9885 </r>
       <r>    -1.4673    -0.3341     7.9589 </r>
       <r>    -1.3786    -0.3350     7.9291 </r>
       <r>    -1.2898     1.2223     8.0376 </r>
       <r>    -1.2011     5.0164     8.4827 </r>
       <r>    -1.1124     8.1006     9.2014 </r>
       <r>    -1.0237     6.8144     9.8060 </r>
       <r>    -0.9350     2.7698    10.0517 </r>
       <r>    -0.8462     0.0885    10.0596 </r>
       <r>    -0.7575    -0.4216    10.0222 </r>
       <r>    -0.6688    -0.1975    10.0046 </r>
       <r>    -0.5801    -0.0454    10.0006 </r>
       <r>    -0.4913    -0.0062    10.0001 </r>
       <r>    -0.4026    -0.0005    10.0000 </r>
       <r>    -0.3139    -0.0000    10.0000 </r>
       <r>    -0.2252    -0.0000    10.0000 </r>
       <r>    -0.1364    -0.0000    10.0000 </r>
       <r>    -0.0477    -0.0000    10.0000 </r>
       <r>     0.0410    -0.0000    10.0000 </r>
       <r>     0.1297    -0.0000    10.0000 </r>
       <r>     0.2184    -0.0000    10.0000 </r>
       <r>     0.3072    -0.0000    10.0000 </r>
       <r>     0.3959    -0.0000    10.0000 </r>
       <r>     0.4846    -0.0000    10.0000 </r>
       <r>     0.5733    -0.0000    10.0000 </r>
       <r>     0.6621    -0.0000    10.0000 </r>
       <r>     0.7508    -0.0001    10.0000 </r>
       <r>     0.8395    -0.0009     9.9999 </r>
       <r>     0.9282    -0.0097     9.9991 </r>
       <r>     1.0170    -0.0651     9.9933 </r>
       <r>     1.1057    -0.2582     9.9704 </r>
       <r>     1.1944    -0.4993     9.9261 </r>
       <r>     1.2831     0.1308     9.9377 </r>
       <r>     1.3718     3.0106    10.2048 </r>
       <r>     1.4606     7.5860    10.8778 </r>
       <r>     1.5493    11.4608    11.8947 </r>
       <r>     1.6380    13.8210    13.1209 </r>
       <r>     1.7267    14.4629    14.4041 </r>
       <r>     1.8155    11.7259    15.4445 </r>
       <r>     1.9042     6.0899    15.9848 </r>
       <r>     1.9929     1.2988    16.1000 </r>
       <r>     2.0816    -0.4912    16.0564 </r>
       <r>     2.1704    -0.4518    16.0163 </r>
       <r>     2.2591    -0.1517    16.0029 </r>
       <r>     2.3478    -0.0289    16.0003 </r>
       <r>     2.4365    -0.0034    16.0000 </r>
       <r>     2.5252    -0.0003    16.0000 </r>
       <r>     2.6140    -0.0000    16.0000 </r>
       <r>     2.7027    -0.0000    16.0000 </r>
       <r>     2.7914    -0.0000    16.0000 </r>
       <r>     2.8801    -0.0000    16.0000 </r>
       <r>     2.9689    -0.0000    16.0000 </r>
       <r>     3.0576    -0.0000    16.0000 </r>
       <r>     3.1463     0.0000    16.0000 </r>
       <r>     3.2350     0.0000    16.0000 </r>
       <r>     3.3238     0.0000    16.0000 </r>
       <r>     3.4125     0.0000    16.0000 </r>
       <r>     3.5012     0.0000    16.0000 </r>
       <r>     3.5899     0.0000    16.0000 </r>
       <r>     3.6787     0.0000    16.0000 </r>
       <r>     3.7674     0.0000    16.0000 </r>
      </set>
     </set>
    </array>
   </total>
  </dos>
 </calculation>
 <structure name="finalpos" >
  <crystal>
   <varray name="basis" >
    <v>       6.00000000       0.00000000       0.00000000 </v>
    <v>       0.00000000       7.00000000       0.00000000 </v>
    <v>       0.00000000       0.00000000       8.00000000 </v>
   </varray>
   <i name="volume">    336.00000000 </i>
   <varray name="rec_basis" >
    <v>       0.16666667       0.00000000       0.00000000 </v>
    <v>       0.00000000       0.14285714       0.00000000 </v>
    <v>       0.00000000       0.00000000       0.12500000 </v>
   </varray>
  </crystal>
  <varray name="positions" >
   <v>       0.63642634       0.56746503       0.52410412 </v>
   <v>       0.50000000       0.36492514       0.52391734 </v>
   <v>       0.36357366       0.56746503       0.52410412 </v>
   <v>       0.50000000       0.50004380       0.47498580 </v>
  </varray>
 </structure>
</modeling>
