       N       E                     dE             d eps       ncg     rms          rms(c)
DAV:   1    -0.194639160773E+02   -0.19464E+02   -0.76762E+00    32   0.172E+01    0.436E+00
DAV:   2    -0.189872129614E+02    0.47670E+00   -0.24711E+00    16   0.100E+01    0.325E-01
DAV:   3    -0.189860693524E+02    0.11436E-02   -0.34814E-02    32   0.133E+00    0.182E-01
DAV:   4    -0.189858603956E+02    0.20896E-03   -0.14854E-04    16   0.128E-01    0.101E-01
DAV:   5    -0.189857208174E+02    0.13958E-03   -0.52070E-04    16   0.188E-01    0.368E-02
DAV:   6    -0.189861032320E+02   -0.38241E-03   -0.12373E-04    16   0.688E-02    0.115E-02
DAV:   7    -0.189862287014E+02   -0.12547E-03   -0.29565E-05    24   0.366E-02    0.629E-03
DAV:   8    -0.189863278991E+02   -0.99198E-04   -0.63054E-06    16   0.166E-02    0.236E-03
DAV:   9    -0.189863706933E+02   -0.42794E-04   -0.40936E-06    16   0.130E-02    0.151E-03
DAV:  10    -0.189863847385E+02   -0.14045E-04   -0.12355E-06    16   0.641E-03    0.654E-04
DAV:  11    -0.189863866182E+02   -0.18797E-05   -0.12086E-07    24   0.204E-03    0.251E-04
DAV:  12    -0.189863874256E+02   -0.80741E-06   -0.93367E-08    16   0.162E-03
   1 F= -.18986387E+02 E0= -.18990253E+02  d E =-.189864E+02
       N       E                     dE             d eps       ncg     rms          rms(c)
DAV:   1    -0.190065145809E+02   -0.20128E-01   -0.63769E-03    16   0.674E-01    0.608E-02
DAV:   2    -0.190064299929E+02    0.84588E-04   -0.34901E-04    16   0.125E-01    0.227E-02
DAV:   3    -0.190064275119E+02    0.24810E-05   -0.22693E-05    32   0.363E-02    0.144E-02
DAV:   4    -0.190064279276E+02   -0.41570E-06   -0.71881E-06    16   0.180E-02
   2 F= -.19006428E+02 E0= -.19010293E+02  d E =-.200405E-01
       N       E                     dE             d eps       ncg     rms          rms(c)
DAV:   1    -0.192122964734E+02   -0.20587E+00   -0.10585E+00    16   0.868E+00    0.772E-01
DAV:   2    -0.191988629668E+02    0.13434E-01   -0.59985E-02    24   0.160E+00    0.296E-01
DAV:   3    -0.191984908230E+02    0.37214E-03   -0.19184E-03    24   0.312E-01    0.173E-01
DAV:   4    -0.191985181406E+02   -0.27318E-04   -0.53715E-04    16   0.165E-01    0.343E-02
DAV:   5    -0.191985155893E+02    0.25513E-05   -0.10908E-04    32   0.688E-02    0.502E-03
DAV:   6    -0.191985435469E+02   -0.27958E-04   -0.31178E-06    16   0.985E-03    0.213E-03
DAV:   7    -0.191985669814E+02   -0.23435E-04   -0.20501E-06    16   0.834E-03    0.131E-03
DAV:   8    -0.191985834407E+02   -0.16459E-04   -0.19812E-06    16   0.705E-03    0.389E-04
DAV:   9    -0.191985860174E+02   -0.25767E-05   -0.14503E-07    32   0.197E-03    0.370E-04
DAV:  10    -0.191985868009E+02   -0.78355E-06   -0.66200E-08    16   0.152E-03
   3 F= -.19198587E+02 E0= -.19202452E+02  d E =-.192159E+00
       N       E                     dE             d eps       ncg     rms          rms(c)
DAV:   1    -0.192889176666E+02   -0.90332E-01   -0.11941E+00    16   0.922E+00    0.778E-01
DAV:   2    -0.192753041387E+02    0.13614E-01   -0.61548E-02    24   0.161E+00    0.297E-01
DAV:   3    -0.192749162676E+02    0.38787E-03   -0.20840E-03    16   0.329E-01    0.172E-01
DAV:   4    -0.192749425948E+02   -0.26327E-04   -0.60369E-04    24   0.170E-01    0.343E-02
DAV:   5    -0.192749384491E+02    0.41457E-05   -0.15270E-04    16   0.770E-02    0.592E-03
DAV:   6    -0.192749687851E+02   -0.30336E-04   -0.67343E-06    16   0.176E-02    0.283E-03
DAV:   7    -0.192749939239E+02   -0.25139E-04   -0.24795E-06    16   0.946E-03    0.142E-03
DAV:   8    -0.192750111703E+02   -0.17246E-04   -0.19064E-06    16   0.713E-03    0.434E-04
DAV:   9    -0.192750142539E+02   -0.30837E-05   -0.17077E-07    24   0.207E-03    0.511E-04
DAV:  10    -0.192750157456E+02   -0.14916E-05   -0.12960E-07    16   0.201E-03    0.185E-04
DAV:  11    -0.192750158254E+02   -0.79850E-07   -0.34306E-09    16   0.405E-04
   4 F= -.19275016E+02 E0= -.19278881E+02  d E =-.764290E-01
       N       E                     dE             d eps       ncg     rms          rms(c)
DAV:   1    -0.192761454864E+02   -0.11297E-02   -0.38988E-02    16   0.167E+00    0.134E-01
DAV:   2    -0.192757366977E+02    0.40879E-03   -0.17215E-03    16   0.273E-01    0.518E-02
DAV:   3    -0.192757250928E+02    0.11605E-04   -0.14278E-04    24   0.884E-02    0.312E-02
DAV:   4    -0.192757274095E+02   -0.23166E-05   -0.62548E-05    24   0.498E-02    0.114E-02
DAV:   5    -0.192757249822E+02    0.24272E-05   -0.21143E-05    16   0.281E-02    0.110E-03
DAV:   6    -0.192757264451E+02   -0.14629E-05   -0.32564E-07    16   0.474E-03    0.824E-04
DAV:   7    -0.192757279826E+02   -0.15375E-05   -0.13906E-07    16   0.239E-03    0.405E-04
DAV:   8    -0.192757292082E+02   -0.12256E-05   -0.64884E-08    16   0.141E-03    0.950E-05
DAV:   9    -0.192757295320E+02   -0.32378E-06   -0.14460E-08    16   0.677E-04
   5 F= -.19275730E+02 E0= -.19279595E+02  d E =-.713707E-03
       N       E                     dE             d eps       ncg     rms          rms(c)
DAV:   1    -0.192726993055E+02    0.30299E-02   -0.45202E-02    16   0.180E+00    0.143E-01
DAV:   2    -0.192722356668E+02    0.46364E-03   -0.19549E-03    16   0.290E-01    0.556E-02
DAV:   3    -0.192722228090E+02    0.12858E-04   -0.16410E-04    24   0.941E-02    0.330E-02
DAV:   4    -0.192722259259E+02   -0.31169E-05   -0.77263E-05    24   0.551E-02    0.129E-02
DAV:   5    -0.192722227172E+02    0.32087E-05   -0.26596E-05    16   0.313E-02    0.121E-03
DAV:   6    -0.192722243999E+02   -0.16827E-05   -0.36300E-07    16   0.516E-03    0.898E-04
DAV:   7    -0.192722261584E+02   -0.17585E-05   -0.16116E-07    16   0.258E-03    0.467E-04
DAV:   8    -0.192722275449E+02   -0.13865E-05   -0.74691E-08    16   0.151E-03    0.107E-04
DAV:   9    -0.192722279347E+02   -0.38982E-06   -0.19014E-08    16   0.783E-04
   6 F= -.19272228E+02 E0= -.19276093E+02  d E =0.350160E-02
       N       E                     dE             d eps       ncg     rms          rms(c)
DAV:   1    -0.192675324062E+02    0.46951E-02   -0.25114E-02    16   0.141E+00    0.959E-02
DAV:   2    -0.192673257376E+02    0.20667E-03   -0.89804E-04    16   0.216E-01    0.387E-02
DAV:   3    -0.192673182926E+02    0.74450E-05   -0.99589E-05    24   0.730E-02    0.236E-02
DAV:   4    -0.192673189293E+02   -0.63668E-06   -0.36239E-05    16   0.380E-02    0.864E-03
DAV:   5    -0.192673179721E+02    0.95718E-06   -0.11820E-05    32   0.217E-02    0.125E-03
DAV:   6    -0.192673186310E+02   -0.65886E-06   -0.23264E-07    16   0.334E-03
   7 F= -.19267319E+02 E0= -.19271184E+02  d E =0.490930E-02
       N       E                     dE             d eps       ncg     rms          rms(c)
DAV:   1    -0.192459109113E+02    0.21407E-01   -0.14519E+00    16   0.117E+01    0.311E-01
DAV:   2    -0.192451908261E+02    0.72009E-03   -0.13362E-02    16   0.104E+00    0.185E-01
DAV:   3    -0.192445521979E+02    0.63863E-03   -0.29074E-03    24   0.542E-01    0.400E-02
DAV:   4    -0.192446048587E+02   -0.52661E-04   -0.35797E-04    16   0.161E-01    0.212E-02
DAV:   5    -0.192446157549E+02   -0.10896E-04   -0.28921E-06    24   0.167E-02    0.125E-02
DAV:   6    -0.192446283826E+02   -0.12628E-04   -0.25984E-06    16   0.147E-02    0.120E-03
DAV:   7    -0.192446324729E+02   -0.40903E-05   -0.55980E-07    16   0.557E-03    0.102E-03
DAV:   8    -0.192446374973E+02   -0.50244E-05   -0.52004E-07    16   0.363E-03    0.298E-04
DAV:   9    -0.192446390041E+02   -0.15068E-05   -0.14391E-07    16   0.182E-03    0.223E-04
DAV:  10    -0.192446395080E+02   -0.50385E-06   -0.32448E-08    16   0.894E-04
   8 F= -.19244640E+02 E0= -.19248505E+02  d E =0.226791E-01
       N       E                     dE             d eps       ncg     rms          rms(c)
DAV:   1    -0.192524807806E+02   -0.78418E-02   -0.57992E+00    16   0.236E+01    0.611E-01
DAV:   2    -0.192499102082E+02    0.25706E-02   -0.58577E-02    16   0.214E+00    0.377E-01
DAV:   3    -0.192473074212E+02    0.26028E-02   -0.13854E-02    24   0.112E+00    0.102E-01
DAV:   4    -0.192474325887E+02   -0.12517E-03   -0.19862E-03    24   0.380E-01    0.584E-02
DAV:   5    -0.192474875887E+02   -0.55000E-04   -0.47767E-05    16   0.657E-02    0.266E-02
DAV:   6    -0.192475474665E+02   -0.59878E-04   -0.16114E-05    16   0.359E-02    0.549E-03
DAV:   7    -0.192475677365E+02   -0.20270E-04   -0.29010E-06    16   0.134E-02    0.188E-03
DAV:   8    -0.192475973563E+02   -0.29620E-04   -0.68449E-06    16   0.139E-02    0.360E-03
DAV:   9    -0.192475978619E+02   -0.50564E-06   -0.10173E-07    24   0.241E-03
   9 F= -.19247598E+02 E0= -.19251463E+02  d E =-.295835E-02
       N       E                     dE             d eps       ncg     rms          rms(c)
DAV:   1    -0.192767098026E+02   -0.29112E-01   -0.16432E+00    16   0.124E+01    0.322E-01
DAV:   2    -0.192764659033E+02    0.24390E-03   -0.20035E-02    16   0.115E+00    0.203E-01
DAV:   3    -0.192756629039E+02    0.80300E-03   -0.33433E-03    16   0.585E-01    0.424E-02
DAV:   4    -0.192757292202E+02   -0.66316E-04   -0.50389E-04    16   0.185E-01    0.211E-02
DAV:   5    -0.192757491968E+02   -0.19977E-04   -0.79710E-06    24   0.310E-02    0.946E-03
DAV:   6    -0.192757565029E+02   -0.73061E-05   -0.58400E-06    16   0.238E-02    0.206E-03
DAV:   7    -0.192757604060E+02   -0.39031E-05   -0.14052E-06    16   0.931E-03    0.103E-03
DAV:   8    -0.192757647528E+02   -0.43468E-05   -0.61074E-07    16   0.541E-03    0.529E-04
DAV:   9    -0.192757661644E+02   -0.14116E-05   -0.11491E-07    16   0.202E-03    0.342E-04
DAV:  10    -0.192757668355E+02   -0.67106E-06   -0.65615E-08    16   0.161E-03
  10 F= -.19275767E+02 E0= -.19279632E+02  d E =-.281690E-01
       N       E                     dE             d eps       ncg     rms          rms(c)
DAV:   1    -0.192410701697E+02    0.34696E-01   -0.14597E+00    16   0.114E+01    0.508E-01
DAV:   2    -0.192365320837E+02    0.45381E-02   -0.26978E-02    24   0.138E+00    0.251E-01
DAV:   3    -0.192357822989E+02    0.74978E-03   -0.49001E-03    16   0.551E-01    0.103E-01
DAV:   4    -0.192357751046E+02    0.71943E-05   -0.77556E-04    16   0.212E-01    0.478E-02
DAV:   5    -0.192357927611E+02   -0.17656E-04   -0.20506E-04    16   0.111E-01    0.129E-02
DAV:   6    -0.192358024813E+02   -0.97202E-05   -0.21101E-05    16   0.437E-02    0.661E-03
DAV:   7    -0.192358094241E+02   -0.69428E-05   -0.13403E-06    16   0.103E-02    0.244E-03
DAV:   8    -0.192358198658E+02   -0.10442E-04   -0.22531E-06    16   0.923E-03    0.189E-03
DAV:   9    -0.192358249912E+02   -0.51254E-05   -0.43786E-07    24   0.410E-03    0.144E-03
DAV:  10    -0.192358274343E+02   -0.24432E-05   -0.16385E-07    16   0.237E-03    0.144E-04
DAV:  11    -0.192358280026E+02   -0.56832E-06   -0.36240E-08    24   0.105E-03
  11 F= -.19235828E+02 E0= -.19239693E+02  d E =0.399388E-01
       N       E                     dE             d eps       ncg     rms          rms(c)
DAV:   1    -0.192784450169E+02   -0.42618E-01   -0.95678E-01    16   0.932E+00    0.413E-01
DAV:   2    -0.192751984644E+02    0.32466E-02   -0.18246E-02    24   0.111E+00    0.205E-01
DAV:   3    -0.192747407938E+02    0.45767E-03   -0.24982E-03    16   0.404E-01    0.870E-02
DAV:   4    -0.192747442262E+02   -0.34324E-05   -0.40126E-04    16   0.161E-01    0.348E-02
DAV:   5    -0.192747534890E+02   -0.92627E-05   -0.10926E-04    32   0.779E-02    0.114E-02
DAV:   6    -0.192747596075E+02   -0.61186E-05   -0.92678E-06    16   0.278E-02    0.478E-03
DAV:   7    -0.192747640378E+02   -0.44302E-05   -0.14843E-06    24   0.861E-03    0.224E-03
DAV:   8    -0.192747678587E+02   -0.38209E-05   -0.40562E-07    16   0.396E-03    0.641E-04
DAV:   9    -0.192747731093E+02   -0.52506E-05   -0.44625E-07    16   0.332E-03    0.130E-03
DAV:  10    -0.192747753161E+02   -0.22068E-05   -0.15184E-07    24   0.190E-03    0.439E-04
DAV:  11    -0.192747756132E+02   -0.29709E-06   -0.47279E-08    16   0.146E-03
  12 F= -.19274776E+02 E0= -.19278641E+02  d E =-.389476E-01
       N       E                     dE             d eps       ncg     rms          rms(c)
DAV:   1    -0.192758567593E+02   -0.10814E-02   -0.11165E-01    16   0.319E+00    0.116E-01
DAV:   2    -0.192756519631E+02    0.20480E-03   -0.17337E-03    16   0.345E-01    0.611E-02
DAV:   3    -0.192756050055E+02    0.46958E-04   -0.32789E-04    16   0.152E-01    0.259E-02
DAV:   4    -0.192756056283E+02   -0.62279E-06   -0.68098E-05    16   0.616E-02    0.129E-02
DAV:   5    -0.192756061208E+02   -0.49243E-06   -0.19181E-05    32   0.339E-02    0.399E-03
DAV:   6    -0.192756066957E+02   -0.57495E-06   -0.12500E-06    16   0.110E-02
  13 F= -.19275607E+02 E0= -.19279472E+02  d E =-.831083E-03
       N       E                     dE             d eps       ncg     rms          rms(c)
DAV:   1    -0.192758039228E+02   -0.19780E-03   -0.14867E-02    16   0.118E+00    0.315E-02
DAV:   2    -0.192757983766E+02    0.55462E-05   -0.16665E-04    16   0.108E-01    0.194E-02
DAV:   3    -0.192757920582E+02    0.63184E-05   -0.33736E-05    16   0.584E-02    0.375E-03
DAV:   4    -0.192757926999E+02   -0.64170E-06   -0.50493E-06    24   0.186E-02
  14 F= -.19275793E+02 E0= -.19279658E+02  d E =-.186004E-03
       N       E                     dE             d eps       ncg     rms          rms(c)
DAV:   1    -0.192759399670E+02   -0.14791E-03   -0.38386E-03    16   0.532E-01    0.411E-02
DAV:   2    -0.192759025960E+02    0.37371E-04   -0.15092E-04    16   0.842E-02    0.161E-02
DAV:   3    -0.192759016426E+02    0.95339E-06   -0.17529E-05    24   0.294E-02    0.981E-03
DAV:   4    -0.192759017218E+02   -0.79199E-07   -0.56454E-06    24   0.148E-02
  15 F= -.19275902E+02 E0= -.19279767E+02  d E =-.109022E-03
       N       E                     dE             d eps       ncg     rms          rms(c)
DAV:   1    -0.192758159561E+02    0.85687E-04   -0.15873E-03    16   0.373E-01    0.232E-02
DAV:   2    -0.192758045091E+02    0.11447E-04   -0.48999E-05    24   0.520E-02    0.973E-03
DAV:   3    -0.192758040751E+02    0.43402E-06   -0.56421E-06    16   0.165E-02
  16 F= -.19275804E+02 E0= -.19279669E+02  d E =0.976467E-04
       N       E                     dE             d eps       ncg     rms          rms(c)
DAV:   1    -0.192758472532E+02   -0.42744E-04   -0.33231E-04    16   0.173E-01    0.704E-03
DAV:   2    -0.192758466969E+02    0.55625E-06   -0.63953E-06    24   0.220E-02
  17 F= -.19275847E+02 E0= -.19279712E+02  d E =-.426218E-04
       N       E                     dE             d eps       ncg     rms          rms(c)
DAV:   1    -0.192759050528E+02   -0.57800E-04   -0.48036E-04    16   0.192E-01    0.149E-02
DAV:   2    -0.192759004172E+02    0.46356E-05   -0.18004E-05    16   0.292E-02    0.631E-03
DAV:   3    -0.192759002712E+02    0.14605E-06   -0.22677E-06    24   0.108E-02
  18 F= -.19275900E+02 E0= -.19279766E+02  d E =-.535743E-04
       N       E                     dE             d eps       ncg     rms          rms(c)
DAV:   1    -0.192759180850E+02   -0.17668E-04   -0.14324E-03    16   0.344E-01    0.235E-02
DAV:   2    -0.192759058544E+02    0.12231E-04   -0.49709E-05    16   0.512E-02    0.942E-03
DAV:   3    -0.192759052921E+02    0.56229E-06   -0.68770E-06    16   0.181E-02
  19 F= -.19275905E+02 E0= -.19279771E+02  d E =-.502090E-05
       N       E                     dE             d eps       ncg     rms          rms(c)
DAV:   1    -0.192758361526E+02    0.69702E-04   -0.15821E-03    16   0.384E-01    0.183E-02
DAV:   2    -0.192758310290E+02    0.51236E-05   -0.39074E-05    16   0.483E-02    0.912E-03
DAV:   3    -0.192758301923E+02    0.83674E-06   -0.59767E-06    24   0.195E-02
  20 F= -.19275830E+02 E0= -.19279695E+02  d E =0.750998E-04
       N       E                     dE             d eps       ncg     rms          rms(c)
DAV:   1    -0.192759333022E+02   -0.10227E-03   -0.21137E-03    16   0.425E-01    0.257E-02
DAV:   2    -0.192759196562E+02    0.13646E-04   -0.62390E-05    16   0.611E-02    0.105E-02
DAV:   3    -0.192759190410E+02    0.61517E-06   -0.11075E-05    16   0.227E-02    0.581E-03
DAV:   4    -0.192759189274E+02    0.11356E-06   -0.19218E-06    32   0.922E-03
  21 F= -.19275919E+02 E0= -.19279784E+02  d E =-.887352E-04
