Automatically generated mesh
       6
Reciprocal lattice
    0.00000000000000    0.00000000000000    0.00000000000000             1
    0.33333333333333    0.00000000000000    0.00000000000000             4
    0.33333333333333    0.33333333333333    0.00000000000000             4
    0.00000000000000    0.00000000000000    0.50000000000000             1
    0.33333333333333    0.00000000000000    0.50000000000000             4
    0.33333333333333    0.33333333333333    0.50000000000000             4
