<?xml version="1.0" encoding="ISO-8859-1"?>
<modeling>
 <generator>
  <i name="program" type="string">vasp </i>
  <i name="version" type="string">5.4.1  </i>
  <i name="subversion" type="string">05Feb16 (build Mar 26 2016 11:58:25) complex                          parallel </i>
  <i name="platform" type="string">IFC91_ompi </i>
  <i name="date" type="string">2017 10 02 </i>
  <i name="time" type="string">19:04:26 </i>
 </generator>
 <incar>
  <i type="int" name="ISTART">     0</i>
  <i type="string" name="PREC">accurate</i>
  <i type="string" name="ALGO"> 38</i>
  <i type="logical" name="ADDGRID"> T  </i>
  <i type="int" name="NELM">   100</i>
  <i type="int" name="NELMIN">     5</i>
  <i type="int" name="IBRION">     1</i>
  <i name="EDIFF">      0.00000001</i>
  <i type="int" name="NSW">     0</i>
  <i type="logical" name="LREAL"> F  </i>
  <i type="int" name="ISMEAR">     0</i>
  <i name="SIGMA">      0.05000000</i>
  <i type="logical" name="LWAVE"> F  </i>
  <i type="logical" name="LCHARG"> F  </i>
  <v type="int" name="KPOINT_BSE">    -1     0     0     0</v>
  <i type="int" name="NELM">   100</i>
  <i type="string" name="GGA"> PS</i>
  <i type="logical" name="LEPSILON"> T  </i>
 </incar>
 <kpoints>
  <generation param="Monkhorst-Pack">
   <v type="int" name="divisions">       2        2        2 </v>
   <v name="usershift">      0.00000000       0.00000000       0.00000000 </v>
   <v name="genvec1">      0.50000000       0.00000000       0.00000000 </v>
   <v name="genvec2">      0.00000000       0.50000000       0.00000000 </v>
   <v name="genvec3">      0.00000000       0.00000000       0.50000000 </v>
   <v name="shift">      0.50000000       0.50000000       0.50000000 </v>
  </generation>
  <varray name="kpointlist" >
   <v>       0.25000000       0.25000000       0.25000000 </v>
  </varray>
  <varray name="weights" >
   <v>       1.00000000 </v>
  </varray>
 </kpoints>
 <parameters>
  <separator name="general" >
   <i type="string" name="SYSTEM">unknown system</i>
   <i type="logical" name="LCOMPAT"> F  </i>
  </separator>
  <separator name="electronic" >
   <i type="string" name="PREC">accura</i>
   <i name="ENMAX">    400.00000000</i>
   <i name="ENAUG">    605.39200000</i>
   <i name="EDIFF">      0.00000001</i>
   <i type="int" name="IALGO">    38</i>
   <i type="int" name="IWAVPR">    10</i>
   <i type="int" name="NBANDS">    32</i>
   <i name="NELECT">     32.00000000</i>
   <i type="int" name="TURBO">     0</i>
   <i type="int" name="IRESTART">     0</i>
   <i type="int" name="NREBOOT">     0</i>
   <i type="int" name="NMIN">     0</i>
   <i name="EREF">      0.00000000</i>
   <separator name="electronic smearing" >
    <i type="int" name="ISMEAR">     0</i>
    <i name="SIGMA">      0.05000000</i>
    <i name="KSPACING">      0.50000000</i>
    <i type="logical" name="KGAMMA"> T  </i>
   </separator>
   <separator name="electronic projectors" >
    <i type="logical" name="LREAL"> F  </i>
    <v name="ROPT">      0.00000000      0.00000000</v>
    <i type="int" name="LMAXPAW">  -100</i>
    <i type="int" name="LMAXMIX">     2</i>
    <i type="logical" name="NLSPLINE"> F  </i>
   </separator>
   <separator name="electronic startup" >
    <i type="int" name="ISTART">     0</i>
    <i type="int" name="ICHARG">     2</i>
    <i type="int" name="INIWAV">     1</i>
   </separator>
   <separator name="electronic spin" >
    <i type="int" name="ISPIN">     1</i>
    <i type="logical" name="LNONCOLLINEAR"> F  </i>
    <v name="MAGMOM">      1.00000000      1.00000000      1.00000000      1.00000000      1.00000000      1.00000000      1.00000000      1.00000000</v>
    <i name="NUPDOWN">     -1.00000000</i>
    <i type="logical" name="LSORBIT"> F  </i>
    <v name="SAXIS">      0.00000000      0.00000000      1.00000000</v>
    <i type="logical" name="LSPIRAL"> F  </i>
    <v name="QSPIRAL">      0.00000000      0.00000000      0.00000000</v>
    <i type="logical" name="LZEROZ"> F  </i>
   </separator>
   <separator name="electronic exchange-correlation" >
    <i type="logical" name="LASPH"> F  </i>
    <i type="logical" name="LMETAGGA"> F  </i>
   </separator>
   <separator name="electronic convergence" >
    <i type="int" name="NELM">   100</i>
    <i type="int" name="NELMDL">    -5</i>
    <i type="int" name="NELMIN">     5</i>
    <i name="ENINI">    400.00000000</i>
    <separator name="electronic convergence detail" >
     <i type="logical" name="LDIAG"> T  </i>
     <i type="logical" name="LSUBROT"> F  </i>
     <i name="WEIMIN">      0.00000000</i>
     <i name="EBREAK">      0.00000000</i>
     <i name="DEPER">      0.30000000</i>
     <i type="int" name="NRMM">     4</i>
     <i name="TIME">      0.40000000</i>
    </separator>
   </separator>
   <separator name="electronic mixer" >
    <i name="AMIX">      0.40000000</i>
    <i name="BMIX">      1.00000000</i>
    <i name="AMIN">      0.10000000</i>
    <i name="AMIX_MAG">      1.60000000</i>
    <i name="BMIX_MAG">      1.00000000</i>
    <separator name="electronic mixer details" >
     <i type="int" name="IMIX">     4</i>
     <i type="logical" name="MIXFIRST"> F  </i>
     <i type="int" name="MAXMIX">   -45</i>
     <i name="WC">    100.00000000</i>
     <i type="int" name="INIMIX">     1</i>
     <i type="int" name="MIXPRE">     1</i>
     <i type="int" name="MREMOVE">     5</i>
    </separator>
   </separator>
   <separator name="electronic dipolcorrection" >
    <i type="logical" name="LDIPOL"> F  </i>
    <i type="logical" name="LMONO"> F  </i>
    <i type="int" name="IDIPOL">     0</i>
    <i name="EPSILON">      1.00000000</i>
    <v name="DIPOL">   -100.00000000   -100.00000000   -100.00000000</v>
    <i name="EFIELD">      0.00000000</i>
   </separator>
  </separator>
  <separator name="grids" >
   <i type="int" name="NGX">    28</i>
   <i type="int" name="NGY">    28</i>
   <i type="int" name="NGZ">    28</i>
   <i type="int" name="NGXF">    56</i>
   <i type="int" name="NGYF">    56</i>
   <i type="int" name="NGZF">    56</i>
   <i type="logical" name="ADDGRID"> T  </i>
  </separator>
  <separator name="ionic" >
   <i type="int" name="NSW">     0</i>
   <i type="int" name="IBRION">    -1</i>
   <i type="int" name="ISIF">     2</i>
   <i name="PSTRESS">      0.00000000</i>
   <i name="EDIFFG">      0.00000010</i>
   <i type="int" name="NFREE">     0</i>
   <i name="POTIM">      0.50000000</i>
   <i name="SMASS">     -3.00000000</i>
   <i name="SCALEE">      1.00000000</i>
  </separator>
  <separator name="ionic md" >
   <i name="TEBEG">      0.00010000</i>
   <i name="TEEND">      0.00010000</i>
   <i type="int" name="NBLOCK">     1</i>
   <i type="int" name="KBLOCK">     1</i>
   <i type="int" name="NPACO">   256</i>
   <i name="APACO">     16.00000000</i>
  </separator>
  <separator name="symmetry" >
   <i type="int" name="ISYM">     2</i>
   <i name="SYMPREC">      0.00001000</i>
  </separator>
  <separator name="dos" >
   <i type="logical" name="LORBIT"> F  </i>
   <v name="RWIGS">     -1.00000000     -1.00000000</v>
   <i type="int" name="NEDOS">   301</i>
   <i name="EMIN">     10.00000000</i>
   <i name="EMAX">    -10.00000000</i>
   <i name="EFERMI">      0.00000000</i>
  </separator>
  <separator name="writing" >
   <i type="int" name="NWRITE">     2</i>
   <i type="logical" name="LWAVE"> F  </i>
   <i type="logical" name="LCHARG"> F  </i>
   <i type="logical" name="LPARD"> F  </i>
   <i type="logical" name="LVTOT"> F  </i>
   <i type="logical" name="LVHAR"> F  </i>
   <i type="logical" name="LELF"> F  </i>
   <i type="logical" name="LOPTICS"> F  </i>
   <v name="STM">      0.00000000      0.00000000      0.00000000      0.00000000      0.00000000      0.00000000      0.00000000</v>
  </separator>
  <separator name="performance" >
   <i type="int" name="NPAR">    16</i>
   <i type="int" name="NSIM">     4</i>
   <i type="int" name="NBLK">    -1</i>
   <i type="logical" name="LPLANE"> T  </i>
   <i type="logical" name="LSCALAPACK"> T  </i>
   <i type="logical" name="LSCAAWARE"> F  </i>
   <i type="logical" name="LSCALU"> F  </i>
   <i type="logical" name="LASYNC"> F  </i>
   <i type="logical" name="LORBITALREAL"> F  </i>
  </separator>
  <separator name="miscellaneous" >
   <i type="int" name="IDIOT">     3</i>
   <i type="logical" name="LMUSIC"> F  </i>
   <v name="POMASS">     24.30500000     16.00000000</v>
   <v name="DARWINR">      0.00000000      0.00000000</v>
   <v name="DARWINV">      1.00000000      1.00000000</v>
   <i type="logical" name="LCORR"> T  </i>
  </separator>
  <i type="logical" name="GGA_COMPAT"> T  </i>
  <i type="logical" name="LBERRY"> F  </i>
  <i type="int" name="ICORELEVEL">     0</i>
  <i type="logical" name="LDAU"> F  </i>
  <i type="int" name="I_CONSTRAINED_M">     0</i>
  <separator name="electronic exchange-correlation" >
   <i type="string" name="GGA">PS</i>
   <i type="int" name="VOSKOWN">     0</i>
   <i type="logical" name="LHFCALC"> F  </i>
   <i type="string" name="PRECFOCK"></i>
   <i type="logical" name="LSYMGRAD"> F  </i>
   <i type="logical" name="LHFONE"> F  </i>
   <i type="logical" name="LRHFCALC"> F  </i>
   <i type="logical" name="LTHOMAS"> F  </i>
   <i type="logical" name="LMODELHF"> F  </i>
   <i name="ENCUT4O">     -1.00000000</i>
   <i type="int" name="EXXOEP">     0</i>
   <i type="int" name="FOURORBIT">     0</i>
   <i name="AEXX">      0.00000000</i>
   <i name="HFALPHA">      0.00000000</i>
   <i name="MCALPHA">      0.00000000</i>
   <i name="ALDAX">      1.00000000</i>
   <i name="AGGAX">      1.00000000</i>
   <i name="ALDAC">      1.00000000</i>
   <i name="AGGAC">      1.00000000</i>
   <i type="int" name="NKREDX">     1</i>
   <i type="int" name="NKREDY">     1</i>
   <i type="int" name="NKREDZ">     1</i>
   <i type="logical" name="SHIFTRED"> F  </i>
   <i type="logical" name="ODDONLY"> F  </i>
   <i type="logical" name="EVENONLY"> F  </i>
   <i type="int" name="LMAXFOCK">     0</i>
   <i type="int" name="NMAXFOCKAE">     0</i>
   <i type="logical" name="LFOCKAEDFT"> F  </i>
   <i name="HFSCREEN">      0.00000000</i>
   <i name="HFSCREENC">      0.00000000</i>
   <i type="int" name="NBANDSGWLOW">     0</i>
  </separator>
  <separator name="vdW DFT" >
   <i type="logical" name="LUSE_VDW"> F  </i>
   <i name="Zab_VDW">     -0.84910000</i>
   <i name="PARAM1">      0.12340000</i>
   <i name="PARAM2">      1.00000000</i>
   <i name="PARAM3">      0.00000000</i>
  </separator>
  <separator name="model GW" >
   <i type="int" name="MODEL_GW">     0</i>
   <i name="MODEL_EPS0">      5.46214669</i>
   <i name="MODEL_ALPHA">      1.00000000</i>
  </separator>
  <separator name="linear response parameters" >
   <i type="logical" name="LEPSILON"> T  </i>
   <i type="logical" name="LRPA"> F  </i>
   <i type="logical" name="LNABLA"> F  </i>
   <i type="logical" name="LVEL"> F  </i>
   <i type="int" name="KINTER">     0</i>
   <i name="CSHIFT">      0.10000000</i>
   <i name="OMEGAMAX">     -1.00000000</i>
   <i name="DEG_THRESHOLD">      0.00200000</i>
  </separator>
  <separator name="orbital magnetization" >
   <i type="logical" name="NUCIND"> F  </i>
   <v name="MAGPOS">      0.00000000      0.00000000      0.00000000</v>
   <i type="logical" name="LNICSALL"> T  </i>
   <i type="logical" name="ORBITALMAG"> F  </i>
   <i type="logical" name="LMAGBLOCH"> F  </i>
   <i type="logical" name="LCHIMAG"> F  </i>
   <i type="logical" name="LGAUGE"> T  </i>
   <i type="int" name="MAGATOM">     0</i>
   <v name="MAGDIPOL">      0.00000000      0.00000000      0.00000000</v>
   <v name="AVECCONST">      0.00000000      0.00000000      0.00000000</v>
  </separator>
  <separator name="response functions" >
   <i type="logical" name="LADDER"> F  </i>
   <i type="logical" name="LFXC"> F  </i>
   <i type="logical" name="LHARTREE"> T  </i>
   <i type="int" name="IBSE">     0</i>
   <v type="int" name="KPOINT">    -1     0     0     0</v>
   <i type="logical" name="LTCTE"> F  </i>
   <i type="logical" name="LTETE"> F  </i>
   <i type="logical" name="LTRIPLET"> F  </i>
   <i type="logical" name="LFXCEPS"> F  </i>
   <i type="logical" name="LFXHEG"> F  </i>
   <i type="int" name="NATURALO">     0</i>
   <i type="logical" name="L2ORDER"> F  </i>
   <i type="logical" name="LUSEW"> F  </i>
   <i name="ENCUTGW">     -2.00000000</i>
   <i name="ENCUTGWSOFT">     -2.00000000</i>
   <i name="ENCUTLF">     -1.00000000</i>
   <i type="int" name="LMAXMP2">    -1</i>
   <i name="SCISSOR">      0.00000000</i>
   <i type="int" name="NOMEGA">     0</i>
   <i type="int" name="NOMEGAR">     0</i>
   <i type="int" name="NBANDSGW">    -1</i>
   <i type="int" name="NBANDSO">    -1</i>
   <i type="int" name="NBANDSV">    -1</i>
   <i type="int" name="NELM">   100</i>
   <i type="int" name="NELMHF">     1</i>
   <i type="int" name="DIM">     3</i>
   <i type="int" name="ANTIRES">     0</i>
   <i name="OMEGAMAX">    -30.00000000</i>
   <i name="OMEGAMIN">    -30.00000000</i>
   <i name="OMEGATL">   -200.00000000</i>
   <i type="int" name="OMEGAGRID">     0</i>
   <i name="CSHIFT">     -0.10000000</i>
   <i type="logical" name="SELFENERGY"> F  </i>
   <i type="logical" name="LSPECTRAL"> F  </i>
   <i type="logical" name="LSPECTRALGW"> F  </i>
   <i type="logical" name="LSINGLES"> F  </i>
   <i type="logical" name="LFERMIGW"> F  </i>
   <i type="logical" name="ODDONLYGW"> F  </i>
   <i type="logical" name="EVENONLYGW"> F  </i>
   <i type="int" name="NKREDLFX">     1</i>
   <i type="int" name="NKREDLFY">     1</i>
   <i type="int" name="NKREDLFZ">     1</i>
   <i type="int" name="MAXMEM">  1800</i>
   <i type="int" name="TELESCOPE">     0</i>
   <i type="int" name="TAUPAR">     1</i>
   <i type="int" name="OMEGAPAR">    -1</i>
   <i name="LAMBDA">      1.00000000</i>
  </separator>
  <separator name="External order field" >
   <i name="OFIELD_KAPPA">      0.00000000</i>
   <v name="OFIELD_K">      0.00000000      0.00000000      0.00000000</v>
   <i name="OFIELD_Q6_NEAR">      0.00000000</i>
   <i name="OFIELD_Q6_FAR">      0.00000000</i>
   <i name="OFIELD_A">      0.00000000</i>
  </separator>
 </parameters>
 <atominfo>
  <atoms>       8 </atoms>
  <types>       2 </types>
  <array name="atoms" >
   <dimension dim="1">ion</dimension>
   <field type="string">element</field>
   <field type="int">atomtype</field>
   <set>
    <rc><c>Mg</c><c>   1</c></rc>
    <rc><c>Mg</c><c>   1</c></rc>
    <rc><c>Mg</c><c>   1</c></rc>
    <rc><c>Mg</c><c>   1</c></rc>
    <rc><c>O </c><c>   2</c></rc>
    <rc><c>O </c><c>   2</c></rc>
    <rc><c>O </c><c>   2</c></rc>
    <rc><c>O </c><c>   2</c></rc>
   </set>
  </array>
  <array name="atomtypes" >
   <dimension dim="1">type</dimension>
   <field type="int">atomspertype</field>
   <field type="string">element</field>
   <field>mass</field>
   <field>valence</field>
   <field type="string">pseudopotential</field>
   <set>
    <rc><c>   4</c><c>Mg</c><c>     24.30500000</c><c>      2.00000000</c><c> PAW_PBE Mg 05Jan2001                   </c></rc>
    <rc><c>   4</c><c>O </c><c>     16.00000000</c><c>      6.00000000</c><c> PAW_PBE O 08Apr2002                    </c></rc>
   </set>
  </array>
 </atominfo>
 <structure name="initialpos" >
  <crystal>
   <varray name="basis" >
    <v>       4.17606611       0.00000000       0.00000000 </v>
    <v>       0.00000000       0.00000000      -4.17606611 </v>
    <v>       0.00000000       4.17606611       0.00000000 </v>
   </varray>
   <i name="volume">     72.82862247 </i>
   <varray name="rec_basis" >
    <v>       0.23945981       0.00000000       0.00000000 </v>
    <v>       0.00000000       0.00000000      -0.23945981 </v>
    <v>       0.00000000       0.23945981       0.00000000 </v>
   </varray>
  </crystal>
  <varray name="positions" >
   <v>       0.00000000       0.00000000       0.00000000 </v>
   <v>       0.00000000       0.50000000       0.50000000 </v>
   <v>       0.50000000       0.00000000       0.50000000 </v>
   <v>       0.50000000       0.50000000       0.00000000 </v>
   <v>       0.50000000       0.50000000       0.50000000 </v>
   <v>       0.50000000       0.00000000       0.00000000 </v>
   <v>       0.00000000       0.50000000       0.00000000 </v>
   <v>       0.00000000       0.00000000       0.50000000 </v>
  </varray>
 </structure>
 <calculation>
  <scstep>
   <time name="dav">    0.02    0.02</time>
   <time name="total">    0.05    0.06</time>
   <energy>
    <i name="alphaZ">     25.13097949 </i>
    <i name="ewald">  -1445.11492801 </i>
    <i name="hartreedc">   -478.44555740 </i>
    <i name="XCdc">     84.67391539 </i>
    <i name="pawpsdc">   1030.97052415 </i>
    <i name="pawaedc">   -993.12663273 </i>
    <i name="eentropy">      0.00000000 </i>
    <i name="bandstr">     46.49446289 </i>
    <i name="atom">   1816.27816867 </i>
    <i name="e_fr_energy">     86.86093245 </i>
    <i name="e_wo_entrp">     86.86093245 </i>
    <i name="e_0_energy">     86.86093245 </i>
   </energy>
  </scstep>
  <scstep>
   <time name="dav">    0.04    0.04</time>
   <time name="total">    0.04    0.04</time>
   <energy>
    <i name="e_fr_energy">    -47.88543856 </i>
    <i name="e_wo_entrp">    -47.88543856 </i>
    <i name="e_0_energy">    -47.88543856 </i>
   </energy>
  </scstep>
  <scstep>
   <time name="dav">    0.02    0.02</time>
   <time name="total">    0.02    0.03</time>
   <energy>
    <i name="e_fr_energy">    -52.60045068 </i>
    <i name="e_wo_entrp">    -52.60045068 </i>
    <i name="e_0_energy">    -52.60045068 </i>
   </energy>
  </scstep>
  <scstep>
   <time name="dav">    0.02    0.02</time>
   <time name="total">    0.02    0.05</time>
   <energy>
    <i name="e_fr_energy">    -52.63298089 </i>
    <i name="e_wo_entrp">    -52.63298089 </i>
    <i name="e_0_energy">    -52.63298089 </i>
   </energy>
  </scstep>
  <scstep>
   <time name="dav">    0.02    0.02</time>
   <time name="total">    0.04    0.05</time>
   <energy>
    <i name="e_fr_energy">    -52.63349143 </i>
    <i name="e_wo_entrp">    -52.63349143 </i>
    <i name="e_0_energy">    -52.63349143 </i>
   </energy>
  </scstep>
  <scstep>
   <time name="dav">    0.01    0.02</time>
   <time name="total">    0.05    0.06</time>
   <energy>
    <i name="e_fr_energy">    -47.27645861 </i>
    <i name="e_wo_entrp">    -47.27645861 </i>
    <i name="e_0_energy">    -47.27645861 </i>
   </energy>
  </scstep>
  <scstep>
   <time name="dav">    0.01    0.01</time>
   <time name="total">    0.06    0.07</time>
   <energy>
    <i name="e_fr_energy">    -47.19770604 </i>
    <i name="e_wo_entrp">    -47.19770604 </i>
    <i name="e_0_energy">    -47.19770604 </i>
   </energy>
  </scstep>
  <scstep>
   <time name="dav">    0.02    0.02</time>
   <time name="total">    0.06    0.07</time>
   <energy>
    <i name="e_fr_energy">    -47.14560982 </i>
    <i name="e_wo_entrp">    -47.14560982 </i>
    <i name="e_0_energy">    -47.14560982 </i>
   </energy>
  </scstep>
  <scstep>
   <time name="dav">    0.02    0.02</time>
   <time name="total">    0.07    0.08</time>
   <energy>
    <i name="e_fr_energy">    -47.14233215 </i>
    <i name="e_wo_entrp">    -47.14233215 </i>
    <i name="e_0_energy">    -47.14233215 </i>
   </energy>
  </scstep>
  <scstep>
   <time name="dav">    0.02    0.02</time>
   <time name="total">    0.06    0.06</time>
   <energy>
    <i name="e_fr_energy">    -47.14179003 </i>
    <i name="e_wo_entrp">    -47.14179003 </i>
    <i name="e_0_energy">    -47.14179003 </i>
   </energy>
  </scstep>
  <scstep>
   <time name="dav">    0.01    0.01</time>
   <time name="total">    0.05    0.06</time>
   <energy>
    <i name="e_fr_energy">    -47.14178741 </i>
    <i name="e_wo_entrp">    -47.14178741 </i>
    <i name="e_0_energy">    -47.14178741 </i>
   </energy>
  </scstep>
  <scstep>
   <time name="dav">    0.01    0.01</time>
   <time name="total">    0.06    0.07</time>
   <energy>
    <i name="e_fr_energy">    -47.14178753 </i>
    <i name="e_wo_entrp">    -47.14178753 </i>
    <i name="e_0_energy">    -47.14178753 </i>
   </energy>
  </scstep>
  <scstep>
   <time name="dav">    0.02    0.02</time>
   <time name="total">    0.06    0.07</time>
   <energy>
    <i name="e_fr_energy">    -47.14178731 </i>
    <i name="e_wo_entrp">    -47.14178731 </i>
    <i name="e_0_energy">    -47.14178731 </i>
   </energy>
  </scstep>
  <scstep>
   <time name="dav">    0.01    0.01</time>
   <time name="total">    0.05    0.06</time>
   <energy>
    <i name="e_fr_energy">    -47.14178733 </i>
    <i name="e_wo_entrp">    -47.14178733 </i>
    <i name="e_0_energy">    -47.14178733 </i>
   </energy>
  </scstep>
  <scstep>
   <time name="dav">    0.01    0.01</time>
   <time name="total">    0.05    0.06</time>
   <energy>
    <i name="e_fr_energy">    -47.14178735 </i>
    <i name="e_wo_entrp">    -47.14178735 </i>
    <i name="e_0_energy">    -47.14178735 </i>
   </energy>
  </scstep>
  <scstep>
   <time name="dav">    0.00    0.01</time>
   <time name="total">    0.03    0.04</time>
   <energy>
    <i name="alphaZ">     25.13097949 </i>
    <i name="ewald">  -1445.11492801 </i>
    <i name="hartreedc">   -552.60337859 </i>
    <i name="XCdc">     90.49180897 </i>
    <i name="pawpsdc">   1277.79934342 </i>
    <i name="pawaedc">  -1241.02462604 </i>
    <i name="eentropy">      0.00000000 </i>
    <i name="bandstr">    -18.09915526 </i>
    <i name="atom">   1816.27816867 </i>
    <i name="e_fr_energy">    -47.14178735 </i>
    <i name="e_wo_entrp">    -47.14178735 </i>
    <i name="e_0_energy">    -47.14178735 </i>
   </energy>
  </scstep>
  <structure>
   <crystal>
    <varray name="basis" >
     <v>       4.17606611       0.00000000       0.00000000 </v>
     <v>       0.00000000       0.00000000      -4.17606611 </v>
     <v>       0.00000000       4.17606611       0.00000000 </v>
    </varray>
    <i name="volume">     72.82862247 </i>
    <varray name="rec_basis" >
     <v>       0.23945981       0.00000000       0.00000000 </v>
     <v>       0.00000000       0.00000000      -0.23945981 </v>
     <v>       0.00000000       0.23945981       0.00000000 </v>
    </varray>
   </crystal>
   <varray name="positions" >
    <v>       0.00000000       0.00000000       0.00000000 </v>
    <v>       0.00000000       0.50000000       0.50000000 </v>
    <v>       0.50000000       0.00000000       0.50000000 </v>
    <v>       0.50000000       0.50000000       0.00000000 </v>
    <v>       0.50000000       0.50000000       0.50000000 </v>
    <v>       0.50000000       0.00000000       0.00000000 </v>
    <v>       0.00000000       0.50000000       0.00000000 </v>
    <v>       0.00000000       0.00000000       0.50000000 </v>
   </varray>
  </structure>
  <varray name="forces" >
   <v>       0.12345678       0.70000000       0.80000000 </v>
   <v>       0.20000000       0.60000000       0.90000000 </v>
   <v>       0.30000000       0.50000000       0.00000000 </v>
   <v>       0.40000000       0.40000000       0.10000000 </v>
   <v>       0.50000000       0.30000000       0.12000001 </v>
   <v>       0.60000000       0.20000000       0.13000002 </v>
   <v>       0.70000000       0.10000000       0.14000003 </v>
   <v>       0.80000000       0.90000000       0.15000004 </v>
  </varray>
  <varray name="stress" >
   <v>     -17.72185233       1.00000001       2.00000003 </v>
   <v>       3.00000001     -13.72185232       4.00000004 </v>
   <v>       5.00000001       6.00000002     -11.72185234 </v>
  </varray>
  <energy>
   <i name="e_fr_energy">    -47.14178735 </i>
   <i name="e_wo_entrp">    -47.14178735 </i>
   <i name="e_0_energy">      0.00000000 </i>
  </energy>
  <scstep>
   <time name="total">    0.01    0.01</time>
   <energy>
    <i name="e_fr_energy">   -118.89591276 </i>
    <i name="e_wo_entrp">   -118.89591276 </i>
    <i name="e_0_energy">   -118.89591276 </i>
   </energy>
  </scstep>
  <scstep>
   <time name="total">    0.01    0.05</time>
   <energy>
    <i name="e_fr_energy">   -115.79180145 </i>
    <i name="e_wo_entrp">   -115.79180145 </i>
    <i name="e_0_energy">   -115.79180145 </i>
   </energy>
  </scstep>
  <scstep>
   <time name="total">    0.01    0.08</time>
   <energy>
    <i name="e_fr_energy">   -115.80636488 </i>
    <i name="e_wo_entrp">   -115.80636488 </i>
    <i name="e_0_energy">   -115.80636488 </i>
   </energy>
  </scstep>
  <scstep>
   <time name="total">    0.01    0.06</time>
   <energy>
    <i name="e_fr_energy">   -115.80664670 </i>
    <i name="e_wo_entrp">   -115.80664670 </i>
    <i name="e_0_energy">   -115.80664670 </i>
   </energy>
  </scstep>
  <scstep>
   <time name="total">    0.01    0.02</time>
   <energy>
    <i name="e_fr_energy">   -115.80664945 </i>
    <i name="e_wo_entrp">   -115.80664945 </i>
    <i name="e_0_energy">   -115.80664945 </i>
   </energy>
  </scstep>
  <scstep>
   <time name="total">    0.01    0.02</time>
   <energy>
    <i name="e_fr_energy">   -115.80664955 </i>
    <i name="e_wo_entrp">   -115.80664955 </i>
    <i name="e_0_energy">   -115.80664955 </i>
   </energy>
  </scstep>
  <scstep>
   <time name="total">    0.01    0.02</time>
   <energy>
    <i name="e_fr_energy">   -115.80664955 </i>
    <i name="e_wo_entrp">   -115.80664955 </i>
    <i name="e_0_energy">   -115.80664955 </i>
   </energy>
  </scstep>
  <scstep>
   <time name="total">    0.01    0.01</time>
   <energy>
    <i name="e_fr_energy">   -117.23649991 </i>
    <i name="e_wo_entrp">   -117.23649991 </i>
    <i name="e_0_energy">   -117.23649991 </i>
   </energy>
  </scstep>
  <scstep>
   <time name="total">    0.01    0.12</time>
   <energy>
    <i name="e_fr_energy">   -115.79300108 </i>
    <i name="e_wo_entrp">   -115.79300108 </i>
    <i name="e_0_energy">   -115.79300108 </i>
   </energy>
  </scstep>
  <scstep>
   <time name="total">    0.01    0.07</time>
   <energy>
    <i name="e_fr_energy">   -115.80636623 </i>
    <i name="e_wo_entrp">   -115.80636623 </i>
    <i name="e_0_energy">   -115.80636623 </i>
   </energy>
  </scstep>
  <scstep>
   <time name="total">    0.01    0.06</time>
   <energy>
    <i name="e_fr_energy">   -115.80664687 </i>
    <i name="e_wo_entrp">   -115.80664687 </i>
    <i name="e_0_energy">   -115.80664687 </i>
   </energy>
  </scstep>
  <scstep>
   <time name="total">    0.01    0.04</time>
   <energy>
    <i name="e_fr_energy">   -115.80664949 </i>
    <i name="e_wo_entrp">   -115.80664949 </i>
    <i name="e_0_energy">   -115.80664949 </i>
   </energy>
  </scstep>
  <scstep>
   <time name="total">    0.01    0.06</time>
   <energy>
    <i name="e_fr_energy">   -115.80664958 </i>
    <i name="e_wo_entrp">   -115.80664958 </i>
    <i name="e_0_energy">   -115.80664958 </i>
   </energy>
  </scstep>
  <scstep>
   <time name="total">    0.01    0.02</time>
   <energy>
    <i name="e_fr_energy">   -115.80664958 </i>
    <i name="e_wo_entrp">   -115.80664958 </i>
    <i name="e_0_energy">   -115.80664958 </i>
   </energy>
  </scstep>
  <scstep>
   <time name="total">    0.01    0.01</time>
   <energy>
    <i name="e_fr_energy">   -118.85715655 </i>
    <i name="e_wo_entrp">   -118.85715655 </i>
    <i name="e_0_energy">   -118.85715655 </i>
   </energy>
  </scstep>
  <scstep>
   <time name="total">    0.01    0.04</time>
   <energy>
    <i name="e_fr_energy">   -115.79184184 </i>
    <i name="e_wo_entrp">   -115.79184184 </i>
    <i name="e_0_energy">   -115.79184184 </i>
   </energy>
  </scstep>
  <scstep>
   <time name="total">    0.01    0.06</time>
   <energy>
    <i name="e_fr_energy">   -115.80636499 </i>
    <i name="e_wo_entrp">   -115.80636499 </i>
    <i name="e_0_energy">   -115.80636499 </i>
   </energy>
  </scstep>
  <scstep>
   <time name="total">    0.01    0.08</time>
   <energy>
    <i name="e_fr_energy">   -115.80664671 </i>
    <i name="e_wo_entrp">   -115.80664671 </i>
    <i name="e_0_energy">   -115.80664671 </i>
   </energy>
  </scstep>
  <scstep>
   <time name="total">    0.01    0.07</time>
   <energy>
    <i name="e_fr_energy">   -115.80664946 </i>
    <i name="e_wo_entrp">   -115.80664946 </i>
    <i name="e_0_energy">   -115.80664946 </i>
   </energy>
  </scstep>
  <scstep>
   <time name="total">    0.01    0.05</time>
   <energy>
    <i name="e_fr_energy">   -115.80664956 </i>
    <i name="e_wo_entrp">   -115.80664956 </i>
    <i name="e_0_energy">   -115.80664956 </i>
   </energy>
  </scstep>
  <scstep>
   <time name="total">    0.01    0.04</time>
   <energy>
    <i name="e_fr_energy">   -115.80664956 </i>
    <i name="e_wo_entrp">   -115.80664956 </i>
    <i name="e_0_energy">   -115.80664956 </i>
   </energy>
  </scstep>
  <scstep>
   <time name="total">    0.06    0.06</time>
   <energy>
    <i name="e_fr_energy">     -0.46240196 </i>
    <i name="e_wo_entrp">     -0.46240196 </i>
    <i name="e_0_energy">     -0.46240196 </i>
   </energy>
  </scstep>
  <scstep>
   <time name="total">    0.06    0.16</time>
   <energy>
    <i name="e_fr_energy">     -0.46516550 </i>
    <i name="e_wo_entrp">     -0.46516550 </i>
    <i name="e_0_energy">     -0.46516550 </i>
   </energy>
  </scstep>
  <scstep>
   <time name="total">    0.06    0.08</time>
   <energy>
    <i name="e_fr_energy">     -0.46519264 </i>
    <i name="e_wo_entrp">     -0.46519264 </i>
    <i name="e_0_energy">     -0.46519264 </i>
   </energy>
  </scstep>
  <scstep>
   <time name="total">    0.06    0.09</time>
   <energy>
    <i name="e_fr_energy">     -0.46519340 </i>
    <i name="e_wo_entrp">     -0.46519340 </i>
    <i name="e_0_energy">     -0.46519340 </i>
   </energy>
  </scstep>
  <scstep>
   <time name="total">    0.06    0.11</time>
   <energy>
    <i name="e_fr_energy">     -0.46519341 </i>
    <i name="e_wo_entrp">     -0.46519341 </i>
    <i name="e_0_energy">     -0.46519341 </i>
   </energy>
  </scstep>
  <scstep>
   <time name="total">    0.06    0.10</time>
   <energy>
    <i name="e_fr_energy">     -0.46519341 </i>
    <i name="e_wo_entrp">     -0.46519341 </i>
    <i name="e_0_energy">     -0.46519341 </i>
   </energy>
  </scstep>
  <scstep>
   <time name="total">    0.06    0.06</time>
   <energy>
    <i name="e_fr_energy">     -0.46419013 </i>
    <i name="e_wo_entrp">     -0.46419013 </i>
    <i name="e_0_energy">     -0.46419013 </i>
   </energy>
  </scstep>
  <scstep>
   <time name="total">    0.06    0.08</time>
   <energy>
    <i name="e_fr_energy">     -0.46516565 </i>
    <i name="e_wo_entrp">     -0.46516565 </i>
    <i name="e_0_energy">     -0.46516565 </i>
   </energy>
  </scstep>
  <scstep>
   <time name="total">    0.06    0.11</time>
   <energy>
    <i name="e_fr_energy">     -0.46519267 </i>
    <i name="e_wo_entrp">     -0.46519267 </i>
    <i name="e_0_energy">     -0.46519267 </i>
   </energy>
  </scstep>
  <scstep>
   <time name="total">    0.06    0.09</time>
   <energy>
    <i name="e_fr_energy">     -0.46519339 </i>
    <i name="e_wo_entrp">     -0.46519339 </i>
    <i name="e_0_energy">     -0.46519339 </i>
   </energy>
  </scstep>
  <scstep>
   <time name="total">    0.06    0.07</time>
   <energy>
    <i name="e_fr_energy">     -0.46519340 </i>
    <i name="e_wo_entrp">     -0.46519340 </i>
    <i name="e_0_energy">     -0.46519340 </i>
   </energy>
  </scstep>
  <scstep>
   <time name="total">    0.06    0.09</time>
   <energy>
    <i name="e_fr_energy">     -0.46519340 </i>
    <i name="e_wo_entrp">     -0.46519340 </i>
    <i name="e_0_energy">     -0.46519340 </i>
   </energy>
  </scstep>
  <scstep>
   <time name="total">    0.06    0.06</time>
   <energy>
    <i name="e_fr_energy">     -0.46240214 </i>
    <i name="e_wo_entrp">     -0.46240214 </i>
    <i name="e_0_energy">     -0.46240214 </i>
   </energy>
  </scstep>
  <scstep>
   <time name="total">    0.06    0.08</time>
   <energy>
    <i name="e_fr_energy">     -0.46516550 </i>
    <i name="e_wo_entrp">     -0.46516550 </i>
    <i name="e_0_energy">     -0.46516550 </i>
   </energy>
  </scstep>
  <scstep>
   <time name="total">    0.06    0.06</time>
   <energy>
    <i name="e_fr_energy">     -0.46519264 </i>
    <i name="e_wo_entrp">     -0.46519264 </i>
    <i name="e_0_energy">     -0.46519264 </i>
   </energy>
  </scstep>
  <scstep>
   <time name="total">    0.06    0.08</time>
   <energy>
    <i name="e_fr_energy">     -0.46519340 </i>
    <i name="e_wo_entrp">     -0.46519340 </i>
    <i name="e_0_energy">     -0.46519340 </i>
   </energy>
  </scstep>
  <scstep>
   <time name="total">    0.06    0.09</time>
   <energy>
    <i name="e_fr_energy">     -0.46519341 </i>
    <i name="e_wo_entrp">     -0.46519341 </i>
    <i name="e_0_energy">     -0.46519341 </i>
   </energy>
  </scstep>
  <scstep>
   <time name="total">    0.06    0.09</time>
   <energy>
    <i name="e_fr_energy">     -0.46519341 </i>
    <i name="e_wo_entrp">     -0.46519341 </i>
    <i name="e_0_energy">     -0.46519341 </i>
   </energy>
  </scstep>
  <varray name="epsilon_rpa" >
   <v>       3.31167818       0.00000000       0.00000000 </v>
   <v>       0.00000000       4.31167814       0.00000000 </v>
   <v>       0.00000000       0.00000000       3.31167818 </v>
  </varray>
  <kpoints>
   <generation param="Monkhorst-Pack">
    <v type="int" name="divisions">       2        2        2 </v>
    <v name="usershift">      0.00000000       0.00000000       0.00000000 </v>
    <v name="genvec1">      0.50000000       0.00000000       0.00000000 </v>
    <v name="genvec2">      0.00000000       0.50000000       0.00000000 </v>
    <v name="genvec3">      0.00000000       0.00000000       0.50000000 </v>
    <v name="shift">      0.50000000       0.50000000       0.50000000 </v>
   </generation>
   <varray name="kpointlist" >
    <v>       0.25000000       0.25000000       0.25000000 </v>
   </varray>
   <varray name="weights" >
    <v>       1.00000000 </v>
   </varray>
  </kpoints>
  <scstep>
   <time name="total">    0.06    0.06</time>
   <energy>
    <i name="e_fr_energy">     -0.46240196 </i>
    <i name="e_wo_entrp">     -0.46240196 </i>
    <i name="e_0_energy">     -0.46240196 </i>
   </energy>
  </scstep>
  <scstep>
   <time name="total">    0.07    0.08</time>
   <energy>
    <i name="e_fr_energy">     -0.46516550 </i>
    <i name="e_wo_entrp">     -0.46516550 </i>
    <i name="e_0_energy">     -0.46516550 </i>
   </energy>
  </scstep>
  <scstep>
   <time name="total">    0.08    0.09</time>
   <energy>
    <i name="e_fr_energy">     -0.45790691 </i>
    <i name="e_wo_entrp">     -0.45790691 </i>
    <i name="e_0_energy">     -0.45790691 </i>
   </energy>
  </scstep>
  <scstep>
   <time name="total">    0.08    0.10</time>
   <energy>
    <i name="e_fr_energy">     -0.48043564 </i>
    <i name="e_wo_entrp">     -0.48043564 </i>
    <i name="e_0_energy">     -0.48043564 </i>
   </energy>
  </scstep>
  <scstep>
   <time name="total">    0.07    0.09</time>
   <energy>
    <i name="e_fr_energy">     -0.48245547 </i>
    <i name="e_wo_entrp">     -0.48245547 </i>
    <i name="e_0_energy">     -0.48245547 </i>
   </energy>
  </scstep>
  <scstep>
   <time name="total">    0.08    0.10</time>
   <energy>
    <i name="e_fr_energy">     -0.48279985 </i>
    <i name="e_wo_entrp">     -0.48279985 </i>
    <i name="e_0_energy">     -0.48279985 </i>
   </energy>
  </scstep>
  <scstep>
   <time name="total">    0.07    0.11</time>
   <energy>
    <i name="e_fr_energy">     -0.48289455 </i>
    <i name="e_wo_entrp">     -0.48289455 </i>
    <i name="e_0_energy">     -0.48289455 </i>
   </energy>
  </scstep>
  <scstep>
   <time name="total">    0.08    0.10</time>
   <energy>
    <i name="e_fr_energy">     -0.48290570 </i>
    <i name="e_wo_entrp">     -0.48290570 </i>
    <i name="e_0_energy">     -0.48290570 </i>
   </energy>
  </scstep>
  <scstep>
   <time name="total">    0.07    0.09</time>
   <energy>
    <i name="e_fr_energy">     -0.48290308 </i>
    <i name="e_wo_entrp">     -0.48290308 </i>
    <i name="e_0_energy">     -0.48290308 </i>
   </energy>
  </scstep>
  <kpoints>
   <generation param="Monkhorst-Pack">
    <v type="int" name="divisions">       2        2        2 </v>
    <v name="usershift">      0.00000000       0.00000000       0.00000000 </v>
    <v name="genvec1">      0.50000000       0.00000000       0.00000000 </v>
    <v name="genvec2">      0.00000000       0.50000000       0.00000000 </v>
    <v name="genvec3">      0.00000000       0.00000000       0.50000000 </v>
    <v name="shift">      0.50000000       0.50000000       0.50000000 </v>
   </generation>
   <varray name="kpointlist" >
    <v>       0.25000000       0.25000000       0.25000000 </v>
   </varray>
   <varray name="weights" >
    <v>       1.00000000 </v>
   </varray>
  </kpoints>
  <scstep>
   <time name="total">    0.06    0.06</time>
   <energy>
    <i name="e_fr_energy">     -0.46419013 </i>
    <i name="e_wo_entrp">     -0.46419013 </i>
    <i name="e_0_energy">     -0.46419013 </i>
   </energy>
  </scstep>
  <scstep>
   <time name="total">    0.08    0.08</time>
   <energy>
    <i name="e_fr_energy">     -0.46516565 </i>
    <i name="e_wo_entrp">     -0.46516565 </i>
    <i name="e_0_energy">     -0.46516565 </i>
   </energy>
  </scstep>
  <scstep>
   <time name="total">    0.08    0.09</time>
   <energy>
    <i name="e_fr_energy">     -0.45789907 </i>
    <i name="e_wo_entrp">     -0.45789907 </i>
    <i name="e_0_energy">     -0.45789907 </i>
   </energy>
  </scstep>
  <scstep>
   <time name="total">    0.08    0.12</time>
   <energy>
    <i name="e_fr_energy">     -0.48043541 </i>
    <i name="e_wo_entrp">     -0.48043541 </i>
    <i name="e_0_energy">     -0.48043541 </i>
   </energy>
  </scstep>
  <scstep>
   <time name="total">    0.08    0.08</time>
   <energy>
    <i name="e_fr_energy">     -0.48246082 </i>
    <i name="e_wo_entrp">     -0.48246082 </i>
    <i name="e_0_energy">     -0.48246082 </i>
   </energy>
  </scstep>
  <scstep>
   <time name="total">    0.08    0.10</time>
   <energy>
    <i name="e_fr_energy">     -0.48279889 </i>
    <i name="e_wo_entrp">     -0.48279889 </i>
    <i name="e_0_energy">     -0.48279889 </i>
   </energy>
  </scstep>
  <scstep>
   <time name="total">    0.07    0.10</time>
   <energy>
    <i name="e_fr_energy">     -0.48289494 </i>
    <i name="e_wo_entrp">     -0.48289494 </i>
    <i name="e_0_energy">     -0.48289494 </i>
   </energy>
  </scstep>
  <scstep>
   <time name="total">    0.08    0.11</time>
   <energy>
    <i name="e_fr_energy">     -0.48290592 </i>
    <i name="e_wo_entrp">     -0.48290592 </i>
    <i name="e_0_energy">     -0.48290592 </i>
   </energy>
  </scstep>
  <scstep>
   <time name="total">    0.08    0.11</time>
   <energy>
    <i name="e_fr_energy">     -0.48290309 </i>
    <i name="e_wo_entrp">     -0.48290309 </i>
    <i name="e_0_energy">     -0.48290309 </i>
   </energy>
  </scstep>
  <kpoints>
   <generation param="Monkhorst-Pack">
    <v type="int" name="divisions">       2        2        2 </v>
    <v name="usershift">      0.00000000       0.00000000       0.00000000 </v>
    <v name="genvec1">      0.50000000       0.00000000       0.00000000 </v>
    <v name="genvec2">      0.00000000       0.50000000       0.00000000 </v>
    <v name="genvec3">      0.00000000       0.00000000       0.50000000 </v>
    <v name="shift">      0.50000000       0.50000000       0.50000000 </v>
   </generation>
   <varray name="kpointlist" >
    <v>       0.25000000       0.25000000       0.25000000 </v>
   </varray>
   <varray name="weights" >
    <v>       1.00000000 </v>
   </varray>
  </kpoints>
  <scstep>
   <time name="total">    0.06    0.06</time>
   <energy>
    <i name="e_fr_energy">     -0.46240214 </i>
    <i name="e_wo_entrp">     -0.46240214 </i>
    <i name="e_0_energy">     -0.46240214 </i>
   </energy>
  </scstep>
  <scstep>
   <time name="total">    0.08    0.08</time>
   <energy>
    <i name="e_fr_energy">     -0.46516550 </i>
    <i name="e_wo_entrp">     -0.46516550 </i>
    <i name="e_0_energy">     -0.46516550 </i>
   </energy>
  </scstep>
  <scstep>
   <time name="total">    0.08    0.09</time>
   <energy>
    <i name="e_fr_energy">     -0.45790692 </i>
    <i name="e_wo_entrp">     -0.45790692 </i>
    <i name="e_0_energy">     -0.45790692 </i>
   </energy>
  </scstep>
  <scstep>
   <time name="total">    0.07    0.11</time>
   <energy>
    <i name="e_fr_energy">     -0.48043559 </i>
    <i name="e_wo_entrp">     -0.48043559 </i>
    <i name="e_0_energy">     -0.48043559 </i>
   </energy>
  </scstep>
  <scstep>
   <time name="total">    0.07    0.09</time>
   <energy>
    <i name="e_fr_energy">     -0.48245550 </i>
    <i name="e_wo_entrp">     -0.48245550 </i>
    <i name="e_0_energy">     -0.48245550 </i>
   </energy>
  </scstep>
  <scstep>
   <time name="total">    0.08    0.12</time>
   <energy>
    <i name="e_fr_energy">     -0.48279985 </i>
    <i name="e_wo_entrp">     -0.48279985 </i>
    <i name="e_0_energy">     -0.48279985 </i>
   </energy>
  </scstep>
  <scstep>
   <time name="total">    0.08    0.09</time>
   <energy>
    <i name="e_fr_energy">     -0.48289455 </i>
    <i name="e_wo_entrp">     -0.48289455 </i>
    <i name="e_0_energy">     -0.48289455 </i>
   </energy>
  </scstep>
  <scstep>
   <time name="total">    0.08    0.11</time>
   <energy>
    <i name="e_fr_energy">     -0.48290571 </i>
    <i name="e_wo_entrp">     -0.48290571 </i>
    <i name="e_0_energy">     -0.48290571 </i>
   </energy>
  </scstep>
  <scstep>
   <time name="total">    0.07    0.10</time>
   <energy>
    <i name="e_fr_energy">     -0.48290308 </i>
    <i name="e_wo_entrp">     -0.48290308 </i>
    <i name="e_0_energy">     -0.48290308 </i>
   </energy>
  </scstep>
  <varray name="epsilon" >
   <v>       3.22043809       0.00000001       0.00000002 </v>
   <v>       0.00000003       4.22043809       0.00000006 </v>
   <v>       0.00000004       0.00000005       5.22043809 </v>
  </varray>
  <kpoints>
   <generation param="Monkhorst-Pack">
    <v type="int" name="divisions">       2        2        2 </v>
    <v name="usershift">      0.00000000       0.00000000       0.00000000 </v>
    <v name="genvec1">      0.50000000       0.00000000       0.00000000 </v>
    <v name="genvec2">      0.00000000       0.50000000       0.00000000 </v>
    <v name="genvec3">      0.00000000       0.00000000       0.50000000 </v>
    <v name="shift">      0.50000000       0.50000000       0.50000000 </v>
   </generation>
   <varray name="kpointlist" >
    <v>       0.25000000       0.25000000       0.25000000 </v>
   </varray>
   <varray name="weights" >
    <v>       1.00000000 </v>
   </varray>
  </kpoints>
  <array name="born_charges" >
   <dimension dim="1">ion</dimension>
   <set>
    <v>       1.94256522       2.00000000       3.00000001 </v>
    <v>       2.40000000       5.94256523       6.00000002 </v>
    <v>       3.70000000       8.00000000       9.94256523 </v>
   </set>
   <set>
    <v>       4.94256522       0.00000000       0.00000004 </v>
    <v>       5.00000000       1.94256523       0.00000005 </v>
    <v>       6.00000000       0.00000000       1.94256522 </v>
   </set>
   <set>
    <v>       7.94256522       0.00000000       0.00000006 </v>
    <v>       8.00000000       1.94256523       0.00000007 </v>
    <v>       9.00000000       0.00000000       1.94256522 </v>
   </set>
   <set>
    <v>       0.94256522       0.00000000       0.00000008 </v>
    <v>       1.00000000       1.94256523       0.00000009 </v>
    <v>       2.00000000       0.00000000       1.94256522 </v>
   </set>
   <set>
    <v>      -3.01290537       0.00000000       0.00000000 </v>
    <v>       4.00000000      -2.01290585       0.00000001 </v>
    <v>       5.00000000       0.00000000      -2.01290542 </v>
   </set>
   <set>
    <v>      -6.01290537       0.00000000       0.00000003 </v>
    <v>       7.00000000      -2.01290585       0.00000004 </v>
    <v>       8.00000000       0.00000000      -2.01290545 </v>
   </set>
   <set>
    <v>      -9.01290537       0.00000000       0.00000006 </v>
    <v>       0.00000000      -2.01290585       0.00000017 </v>
    <v>       1.00000000       0.00000000      -2.01290548 </v>
   </set>
   <set>
    <v>      -2.01290537       0.00000000       0.00000009 </v>
    <v>       3.00000000      -2.01290585       0.00000000 </v>
    <v>       4.00000000       0.00000000      -2.01290541 </v>
   </set>
  </array>
  <time name="totalsc">    6.79    9.43</time>
  <eigenvalues>
   <array>
    <dimension dim="1">band</dimension>
    <dimension dim="2">kpoint</dimension>
    <dimension dim="3">spin</dimension>
    <field>eigene</field>
    <field>occ</field>
    <set>
     <set comment="spin 1">
      <set comment="kpoint 1">
       <r>  -11.7260    1.0000 </r>
       <r>  -10.8483    1.0000 </r>
       <r>  -10.8483    1.0000 </r>
       <r>  -10.8483    1.0000 </r>
       <r>    1.0172    1.0000 </r>
       <r>    1.0172    1.0000 </r>
       <r>    1.0172    1.0000 </r>
       <r>    2.2395    1.0000 </r>
       <r>    2.9784    1.0000 </r>
       <r>    2.9784    1.0000 </r>
       <r>    2.9784    1.0000 </r>
       <r>    3.9179    1.0000 </r>
       <r>    3.9179    1.0000 </r>
       <r>    3.9179    1.0000 </r>
       <r>    4.6206    1.0000 </r>
       <r>    4.6206    1.0000 </r>
       <r>   12.2091    0.0000 </r>
       <r>   14.7055    0.0000 </r>
       <r>   14.7055    0.0000 </r>
       <r>   14.7055    0.0000 </r>
       <r>   16.6765    0.0000 </r>
       <r>   16.6765    0.0000 </r>
       <r>   16.6765    0.0000 </r>
       <r>   17.5674    0.0000 </r>
       <r>   18.4232    0.0000 </r>
       <r>   18.4232    0.0000 </r>
       <r>   18.4232    0.0000 </r>
       <r>   21.6877    0.0000 </r>
       <r>   21.6877    0.0000 </r>
       <r>   22.7923    0.0000 </r>
       <r>   22.7923    0.0000 </r>
       <r>   22.7923    0.0000 </r>
      </set>
     </set>
    </set>
   </array>
  </eigenvalues>
  <separator name="orbital magnetization" >
   <v name="MAGDIPOLOUT">      0.00000000      0.00000000      0.00000000</v>
  </separator>
  <dos>
   <i name="efermi">      4.91614259 </i>
   <total>
    <array>
     <dimension dim="1">gridpoints</dimension>
     <dimension dim="2">spin</dimension>
     <field>energy</field>
     <field>total</field>
     <field>integrated</field>
     <set>
      <set comment="spin 1">
       <r>   -13.4519     0.0000     0.0000 </r>
       <r>   -13.3254     0.0000     0.0000 </r>
       <r>   -13.1988     0.0000     0.0000 </r>
       <r>   -13.0722     0.0000     0.0000 </r>
       <r>   -12.9457     0.0000     0.0000 </r>
       <r>   -12.8191     0.0000     0.0000 </r>
       <r>   -12.6925     0.0000     0.0000 </r>
       <r>   -12.5660     0.0000     0.0000 </r>
       <r>   -12.4394     0.0000     0.0000 </r>
       <r>   -12.3128     0.0000     0.0000 </r>
       <r>   -12.1862     0.0000     0.0000 </r>
       <r>   -12.0597     0.0000     0.0000 </r>
       <r>   -11.9331     0.0000     0.0000 </r>
       <r>   -11.8065     0.1795     0.0227 </r>
       <r>   -11.6800    14.0975     1.8070 </r>
       <r>   -11.5534     1.5248     2.0000 </r>
       <r>   -11.4268     0.0000     2.0000 </r>
       <r>   -11.3003     0.0000     2.0000 </r>
       <r>   -11.1737     0.0000     2.0000 </r>
       <r>   -11.0471     0.0000     2.0000 </r>
       <r>   -10.9206     0.9680     2.1225 </r>
       <r>   -10.7940    43.4782     7.6254 </r>
       <r>   -10.6674     2.9594     8.0000 </r>
       <r>   -10.5409     0.0000     8.0000 </r>
       <r>   -10.4143     0.0000     8.0000 </r>
       <r>   -10.2877     0.0000     8.0000 </r>
       <r>   -10.1612     0.0000     8.0000 </r>
       <r>   -10.0346     0.0000     8.0000 </r>
       <r>    -9.9080     0.0000     8.0000 </r>
       <r>    -9.7815     0.0000     8.0000 </r>
       <r>    -9.6549     0.0000     8.0000 </r>
       <r>    -9.5283     0.0000     8.0000 </r>
       <r>    -9.4018     0.0000     8.0000 </r>
       <r>    -9.2752     0.0000     8.0000 </r>
       <r>    -9.1486     0.0000     8.0000 </r>
       <r>    -9.0221     0.0000     8.0000 </r>
       <r>    -8.8955     0.0000     8.0000 </r>
       <r>    -8.7689     0.0000     8.0000 </r>
       <r>    -8.6424     0.0000     8.0000 </r>
       <r>    -8.5158     0.0000     8.0000 </r>
       <r>    -8.3892     0.0000     8.0000 </r>
       <r>    -8.2627     0.0000     8.0000 </r>
       <r>    -8.1361     0.0000     8.0000 </r>
       <r>    -8.0095     0.0000     8.0000 </r>
       <r>    -7.8830     0.0000     8.0000 </r>
       <r>    -7.7564     0.0000     8.0000 </r>
       <r>    -7.6298     0.0000     8.0000 </r>
       <r>    -7.5033     0.0000     8.0000 </r>
       <r>    -7.3767     0.0000     8.0000 </r>
       <r>    -7.2501     0.0000     8.0000 </r>
       <r>    -7.1236     0.0000     8.0000 </r>
       <r>    -6.9970     0.0000     8.0000 </r>
       <r>    -6.8704     0.0000     8.0000 </r>
       <r>    -6.7439     0.0000     8.0000 </r>
       <r>    -6.6173     0.0000     8.0000 </r>
       <r>    -6.4907     0.0000     8.0000 </r>
       <r>    -6.3642     0.0000     8.0000 </r>
       <r>    -6.2376     0.0000     8.0000 </r>
       <r>    -6.1110     0.0000     8.0000 </r>
       <r>    -5.9845     0.0000     8.0000 </r>
       <r>    -5.8579     0.0000     8.0000 </r>
       <r>    -5.7313     0.0000     8.0000 </r>
       <r>    -5.6048     0.0000     8.0000 </r>
       <r>    -5.4782     0.0000     8.0000 </r>
       <r>    -5.3516     0.0000     8.0000 </r>
       <r>    -5.2251     0.0000     8.0000 </r>
       <r>    -5.0985     0.0000     8.0000 </r>
       <r>    -4.9719     0.0000     8.0000 </r>
       <r>    -4.8454     0.0000     8.0000 </r>
       <r>    -4.7188     0.0000     8.0000 </r>
       <r>    -4.5922     0.0000     8.0000 </r>
       <r>    -4.4657     0.0000     8.0000 </r>
       <r>    -4.3391     0.0000     8.0000 </r>
       <r>    -4.2125     0.0000     8.0000 </r>
       <r>    -4.0859     0.0000     8.0000 </r>
       <r>    -3.9594     0.0000     8.0000 </r>
       <r>    -3.8328     0.0000     8.0000 </r>
       <r>    -3.7062     0.0000     8.0000 </r>
       <r>    -3.5797     0.0000     8.0000 </r>
       <r>    -3.4531     0.0000     8.0000 </r>
       <r>    -3.3265     0.0000     8.0000 </r>
       <r>    -3.2000     0.0000     8.0000 </r>
       <r>    -3.0734     0.0000     8.0000 </r>
       <r>    -2.9468     0.0000     8.0000 </r>
       <r>    -2.8203     0.0000     8.0000 </r>
       <r>    -2.6937     0.0000     8.0000 </r>
       <r>    -2.5671     0.0000     8.0000 </r>
       <r>    -2.4406     0.0000     8.0000 </r>
       <r>    -2.3140     0.0000     8.0000 </r>
       <r>    -2.1874     0.0000     8.0000 </r>
       <r>    -2.0609     0.0000     8.0000 </r>
       <r>    -1.9343     0.0000     8.0000 </r>
       <r>    -1.8077     0.0000     8.0000 </r>
       <r>    -1.6812     0.0000     8.0000 </r>
       <r>    -1.5546     0.0000     8.0000 </r>
       <r>    -1.4280     0.0000     8.0000 </r>
       <r>    -1.3015     0.0000     8.0000 </r>
       <r>    -1.1749     0.0000     8.0000 </r>
       <r>    -1.0483     0.0000     8.0000 </r>
       <r>    -0.9218     0.0000     8.0000 </r>
       <r>    -0.7952     0.0000     8.0000 </r>
       <r>    -0.6686     0.0000     8.0000 </r>
       <r>    -0.5421     0.0000     8.0000 </r>
       <r>    -0.4155     0.0000     8.0000 </r>
       <r>    -0.2889     0.0000     8.0000 </r>
       <r>    -0.1624     0.0000     8.0000 </r>
       <r>    -0.0358     0.0000     8.0000 </r>
       <r>     0.0908     0.0000     8.0000 </r>
       <r>     0.2173     0.0000     8.0000 </r>
       <r>     0.3439     0.0000     8.0000 </r>
       <r>     0.4705     0.0000     8.0000 </r>
       <r>     0.5970     0.0000     8.0000 </r>
       <r>     0.7236     0.0000     8.0000 </r>
       <r>     0.8502     0.0001     8.0000 </r>
       <r>     0.9767     5.9841     8.7574 </r>
       <r>     1.1033    41.0690    13.9554 </r>
       <r>     1.2299     0.3525    14.0000 </r>
       <r>     1.3564     0.0000    14.0000 </r>
       <r>     1.4830     0.0000    14.0000 </r>
       <r>     1.6096     0.0000    14.0000 </r>
       <r>     1.7361     0.0000    14.0000 </r>
       <r>     1.8627     0.0000    14.0000 </r>
       <r>     1.9893     0.0000    14.0000 </r>
       <r>     2.1158     0.0037    14.0005 </r>
       <r>     2.2424     8.4093    15.0648 </r>
       <r>     2.3690     7.3869    15.9997 </r>
       <r>     2.4955     0.0020    16.0000 </r>
       <r>     2.6221     0.0000    16.0000 </r>
       <r>     2.7487     0.0000    16.0000 </r>
       <r>     2.8752     0.0833    16.0105 </r>
       <r>     3.0018    35.2691    20.4745 </r>
       <r>     3.1284    12.0527    21.9999 </r>
       <r>     3.2549     0.0005    22.0000 </r>
       <r>     3.3815     0.0000    22.0000 </r>
       <r>     3.5081     0.0000    22.0000 </r>
       <r>     3.6346     0.0000    22.0000 </r>
       <r>     3.7612     0.0002    22.0000 </r>
       <r>     3.8878     9.3471    23.1831 </r>
       <r>     4.0144    37.9073    27.9809 </r>
       <r>     4.1409     0.1510    28.0000 </r>
       <r>     4.2675     0.0000    28.0000 </r>
       <r>     4.3941     0.0000    28.0000 </r>
       <r>     4.5206     0.0744    28.0094 </r>
       <r>     4.6472    24.3995    31.0976 </r>
       <r>     4.7738     7.1296    32.0000 </r>
       <r>     4.9003     0.0002    32.0000 </r>
       <r>     5.0269     0.0000    32.0000 </r>
       <r>     5.1535     0.0000    32.0000 </r>
       <r>     5.2800     0.0000    32.0000 </r>
       <r>     5.4066     0.0000    32.0000 </r>
       <r>     5.5332     0.0000    32.0000 </r>
       <r>     5.6597     0.0000    32.0000 </r>
       <r>     5.7863     0.0000    32.0000 </r>
       <r>     5.9129     0.0000    32.0000 </r>
       <r>     6.0394     0.0000    32.0000 </r>
       <r>     6.1660     0.0000    32.0000 </r>
       <r>     6.2926     0.0000    32.0000 </r>
       <r>     6.4191     0.0000    32.0000 </r>
       <r>     6.5457     0.0000    32.0000 </r>
       <r>     6.6723     0.0000    32.0000 </r>
       <r>     6.7988     0.0000    32.0000 </r>
       <r>     6.9254     0.0000    32.0000 </r>
       <r>     7.0520     0.0000    32.0000 </r>
       <r>     7.1785     0.0000    32.0000 </r>
       <r>     7.3051     0.0000    32.0000 </r>
       <r>     7.4317     0.0000    32.0000 </r>
       <r>     7.5582     0.0000    32.0000 </r>
       <r>     7.6848     0.0000    32.0000 </r>
       <r>     7.8114     0.0000    32.0000 </r>
       <r>     7.9379     0.0000    32.0000 </r>
       <r>     8.0645     0.0000    32.0000 </r>
       <r>     8.1911     0.0000    32.0000 </r>
       <r>     8.3176     0.0000    32.0000 </r>
       <r>     8.4442     0.0000    32.0000 </r>
       <r>     8.5708     0.0000    32.0000 </r>
       <r>     8.6973     0.0000    32.0000 </r>
       <r>     8.8239     0.0000    32.0000 </r>
       <r>     8.9505     0.0000    32.0000 </r>
       <r>     9.0770     0.0000    32.0000 </r>
       <r>     9.2036     0.0000    32.0000 </r>
       <r>     9.3302     0.0000    32.0000 </r>
       <r>     9.4567     0.0000    32.0000 </r>
       <r>     9.5833     0.0000    32.0000 </r>
       <r>     9.7099     0.0000    32.0000 </r>
       <r>     9.8364     0.0000    32.0000 </r>
       <r>     9.9630     0.0000    32.0000 </r>
       <r>    10.0896     0.0000    32.0000 </r>
       <r>    10.2161     0.0000    32.0000 </r>
       <r>    10.3427     0.0000    32.0000 </r>
       <r>    10.4693     0.0000    32.0000 </r>
       <r>    10.5958     0.0000    32.0000 </r>
       <r>    10.7224     0.0000    32.0000 </r>
       <r>    10.8490     0.0000    32.0000 </r>
       <r>    10.9755     0.0000    32.0000 </r>
       <r>    11.1021     0.0000    32.0000 </r>
       <r>    11.2287     0.0000    32.0000 </r>
       <r>    11.3552     0.0000    32.0000 </r>
       <r>    11.4818     0.0000    32.0000 </r>
       <r>    11.6084     0.0000    32.0000 </r>
       <r>    11.7349     0.0000    32.0000 </r>
       <r>    11.8615     0.0000    32.0000 </r>
       <r>    11.9881     0.0000    32.0000 </r>
       <r>    12.1147     0.0596    32.0075 </r>
       <r>    12.2412    12.8678    33.6362 </r>
       <r>    12.3678     2.8744    34.0000 </r>
       <r>    12.4944     0.0001    34.0000 </r>
       <r>    12.6209     0.0000    34.0000 </r>
       <r>    12.7475     0.0000    34.0000 </r>
       <r>    12.8741     0.0000    34.0000 </r>
       <r>    13.0006     0.0000    34.0000 </r>
       <r>    13.1272     0.0000    34.0000 </r>
       <r>    13.2538     0.0000    34.0000 </r>
       <r>    13.3803     0.0000    34.0000 </r>
       <r>    13.5069     0.0000    34.0000 </r>
       <r>    13.6335     0.0000    34.0000 </r>
       <r>    13.7600     0.0000    34.0000 </r>
       <r>    13.8866     0.0000    34.0000 </r>
       <r>    14.0132     0.0000    34.0000 </r>
       <r>    14.1397     0.0000    34.0000 </r>
       <r>    14.2663     0.0000    34.0000 </r>
       <r>    14.3929     0.0000    34.0000 </r>
       <r>    14.5194     0.0000    34.0000 </r>
       <r>    14.6460     2.1860    34.2767 </r>
       <r>    14.7726    43.8461    39.8262 </r>
       <r>    14.8991     1.3736    40.0000 </r>
       <r>    15.0257     0.0000    40.0000 </r>
       <r>    15.1523     0.0000    40.0000 </r>
       <r>    15.2788     0.0000    40.0000 </r>
       <r>    15.4054     0.0000    40.0000 </r>
       <r>    15.5320     0.0000    40.0000 </r>
       <r>    15.6585     0.0000    40.0000 </r>
       <r>    15.7851     0.0000    40.0000 </r>
       <r>    15.9117     0.0000    40.0000 </r>
       <r>    16.0382     0.0000    40.0000 </r>
       <r>    16.1648     0.0000    40.0000 </r>
       <r>    16.2914     0.0000    40.0000 </r>
       <r>    16.4179     0.0000    40.0000 </r>
       <r>    16.5445     0.0045    40.0006 </r>
       <r>    16.6711    20.8113    42.6346 </r>
       <r>    16.7976    26.5753    45.9982 </r>
       <r>    16.9242     0.0145    46.0000 </r>
       <r>    17.0508     0.0000    46.0000 </r>
       <r>    17.1773     0.0000    46.0000 </r>
       <r>    17.3039     0.0000    46.0000 </r>
       <r>    17.4305     0.0008    46.0001 </r>
       <r>    17.5570     6.0787    46.7695 </r>
       <r>    17.6836     9.7143    47.9990 </r>
       <r>    17.8102     0.0080    48.0000 </r>
       <r>    17.9367     0.0000    48.0000 </r>
       <r>    18.0633     0.0000    48.0000 </r>
       <r>    18.1899     0.0000    48.0000 </r>
       <r>    18.3164     0.0600    48.0076 </r>
       <r>    18.4430    33.7059    52.2737 </r>
       <r>    18.5696    13.6390    53.9999 </r>
       <r>    18.6961     0.0008    54.0000 </r>
       <r>    18.8227     0.0000    54.0000 </r>
       <r>    18.9493     0.0000    54.0000 </r>
       <r>    19.0758     0.0000    54.0000 </r>
       <r>    19.2024     0.0000    54.0000 </r>
       <r>    19.3290     0.0000    54.0000 </r>
       <r>    19.4555     0.0000    54.0000 </r>
       <r>    19.5821     0.0000    54.0000 </r>
       <r>    19.7087     0.0000    54.0000 </r>
       <r>    19.8353     0.0000    54.0000 </r>
       <r>    19.9618     0.0000    54.0000 </r>
       <r>    20.0884     0.0000    54.0000 </r>
       <r>    20.2150     0.0000    54.0000 </r>
       <r>    20.3415     0.0000    54.0000 </r>
       <r>    20.4681     0.0000    54.0000 </r>
       <r>    20.5947     0.0000    54.0000 </r>
       <r>    20.7212     0.0000    54.0000 </r>
       <r>    20.8478     0.0000    54.0000 </r>
       <r>    20.9744     0.0000    54.0000 </r>
       <r>    21.1009     0.0000    54.0000 </r>
       <r>    21.2275     0.0000    54.0000 </r>
       <r>    21.3541     0.0000    54.0000 </r>
       <r>    21.4806     0.0000    54.0000 </r>
       <r>    21.6072     0.3603    54.0456 </r>
       <r>    21.7338    28.2010    57.6149 </r>
       <r>    21.8603     3.0424    58.0000 </r>
       <r>    21.9869     0.0000    58.0000 </r>
       <r>    22.1135     0.0000    58.0000 </r>
       <r>    22.2400     0.0000    58.0000 </r>
       <r>    22.3666     0.0000    58.0000 </r>
       <r>    22.4932     0.0000    58.0000 </r>
       <r>    22.6197     0.0000    58.0000 </r>
       <r>    22.7463     4.5745    58.5790 </r>
       <r>    22.8729    42.2926    63.9318 </r>
       <r>    22.9994     0.5386    64.0000 </r>
       <r>    23.1260     0.0000    64.0000 </r>
       <r>    23.2526     0.0000    64.0000 </r>
       <r>    23.3791     0.0000    64.0000 </r>
       <r>    23.5057     0.0000    64.0000 </r>
       <r>    23.6323     0.0000    64.0000 </r>
       <r>    23.7588     0.0000    64.0000 </r>
       <r>    23.8854     0.0000    64.0000 </r>
       <r>    24.0120     0.0000    64.0000 </r>
       <r>    24.1385     0.0000    64.0000 </r>
       <r>    24.2651     0.0000    64.0000 </r>
       <r>    24.3917     0.0000    64.0000 </r>
       <r>    24.5182     0.0000    64.0000 </r>
      </set>
     </set>
    </array>
   </total>
  </dos>
 </calculation>
 <structure name="finalpos" >
  <crystal>
   <varray name="basis" >
    <v>       4.17606611       0.00000000       0.00000000 </v>
    <v>       0.00000000       0.00000000      -4.17606611 </v>
    <v>       0.00000000       4.17606611       0.00000000 </v>
   </varray>
   <i name="volume">     72.82862247 </i>
   <varray name="rec_basis" >
    <v>       0.23945981       0.00000000       0.00000000 </v>
    <v>       0.00000000       0.00000000      -0.23945981 </v>
    <v>       0.00000000       0.23945981       0.00000000 </v>
   </varray>
  </crystal>
  <varray name="positions" >
   <v>       0.00000000       0.00000000       0.00000000 </v>
   <v>       0.00000000       0.50000000       0.50000000 </v>
   <v>       0.50000000       0.00000000       0.50000000 </v>
   <v>       0.50000000       0.50000000       0.00000000 </v>
   <v>       0.50000000       0.50000000       0.50000000 </v>
   <v>       0.50000000       0.00000000       0.00000000 </v>
   <v>       0.00000000       0.50000000       0.00000000 </v>
   <v>       0.00000000       0.00000000       0.50000000 </v>
  </varray>
 </structure>
</modeling>
