<?xml version="1.0" encoding="ISO-8859-1"?>
<modeling>
 <generator>
  <i name="program" type="string">vasp </i>
  <i name="version" type="string">5.3.5  </i>
  <i name="subversion" type="string">31Mar14 (build Jul 23 2014 14:06:12) complex                          parallel </i>
  <i name="platform" type="string">LinuxIFC </i>
  <i name="date" type="string">2016 03 08 </i>
  <i name="time" type="string">15:45:32 </i>
 </generator>
 <incar>
  <i type="int" name="ISTART">     1</i>
  <i type="string" name="PREC">normal</i>
  <i type="int" name="ICHARG">    11</i>
  <i name="EDIFF">      0.00001000</i>
  <i name="ENCUT">    280.00000000</i>
  <i type="int" name="ISMEAR">     0</i>
  <i name="SIGMA">      0.05000000</i>
  <i type="logical" name="LORBIT"> F  </i>
  <i type="logical" name="GGA_COMPAT"> F  </i>
  <i type="string" name="GGA"> None</i>
  <i type="logical" name="LWANNIER90"> T  </i>
 </incar>
 <kpoints>
  <generation param="Gamma">
   <v type="int" name="divisions">       4        4        4 </v>
   <v name="usershift">      0.00000000       0.00000000       0.00000000 </v>
   <v name="genvec1">      0.25000000       0.00000000       0.00000000 </v>
   <v name="genvec2">      0.00000000       0.25000000       0.00000000 </v>
   <v name="genvec3">      0.00000000       0.00000000       0.25000000 </v>
   <v name="shift">      0.00000000       0.00000000       0.00000000 </v>
  </generation>
  <varray name="kpointlist" >
   <v>       0.00000000       0.00000000       0.00000000 </v>
   <v>       0.25000000       0.00000000       0.00000000 </v>
   <v>       0.50000000       0.00000000       0.00000000 </v>
   <v>       0.25000000       0.25000000       0.00000000 </v>
   <v>       0.50000000       0.25000000      -0.00000000 </v>
   <v>       0.50000000       0.50000000       0.00000000 </v>
   <v>       0.25000000       0.25000000       0.25000000 </v>
   <v>       0.50000000       0.25000000       0.25000000 </v>
   <v>       0.50000000       0.50000000       0.25000000 </v>
   <v>       0.50000000       0.50000000       0.50000000 </v>
  </varray>
  <varray name="weights" >
   <v>       0.01562500 </v>
   <v>       0.09375000 </v>
   <v>       0.04687500 </v>
   <v>       0.18750000 </v>
   <v>       0.18750000 </v>
   <v>       0.04687500 </v>
   <v>       0.12500000 </v>
   <v>       0.18750000 </v>
   <v>       0.09375000 </v>
   <v>       0.01562500 </v>
  </varray>
 </kpoints>
 <parameters>
  <separator name="general" >
   <i type="string" name="SYSTEM">unknown system</i>
   <i type="logical" name="LCOMPAT"> F  </i>
  </separator>
  <separator name="electronic" >
   <i type="string" name="PREC">normal</i>
   <i name="ENMAX">    280.00000000</i>
   <i name="ENAUG">    462.75800000</i>
   <i name="EDIFF">      0.00001000</i>
   <i type="int" name="IALGO">    38</i>
   <i type="int" name="IWAVPR">    10</i>
   <i type="int" name="NBANDS">    48</i>
   <i name="NELECT">     72.00000000</i>
   <i type="int" name="TURBO">     0</i>
   <i type="int" name="IRESTART">     0</i>
   <i type="int" name="NREBOOT">     0</i>
   <i type="int" name="NMIN">     0</i>
   <i name="EREF">      0.00000000</i>
   <separator name="electronic smearing" >
    <i type="int" name="ISMEAR">     0</i>
    <i name="SIGMA">      0.05000000</i>
    <i name="KSPACING">      0.50000000</i>
    <i type="logical" name="KGAMMA"> T  </i>
   </separator>
   <separator name="electronic projectors" >
    <i type="logical" name="LREAL"> F  </i>
    <v name="ROPT">      0.00000000      0.00000000</v>
    <i type="int" name="LMAXPAW">  -100</i>
    <i type="int" name="LMAXMIX">     2</i>
    <i type="logical" name="NLSPLINE"> F  </i>
   </separator>
   <separator name="electronic startup" >
    <i type="int" name="ISTART">     1</i>
    <i type="int" name="ICHARG">    11</i>
    <i type="int" name="INIWAV">     1</i>
   </separator>
   <separator name="electronic spin" >
    <i type="int" name="ISPIN">     1</i>
    <i type="logical" name="LNONCOLLINEAR"> F  </i>
    <v name="MAGMOM">      1.00000000      1.00000000      1.00000000      1.00000000      1.00000000      1.00000000      1.00000000      1.00000000</v>
    <i name="NUPDOWN">     -1.00000000</i>
    <i type="logical" name="LSORBIT"> F  </i>
    <v name="SAXIS">      0.00000000      0.00000000      1.00000000</v>
    <i type="logical" name="LSPIRAL"> F  </i>
    <v name="QSPIRAL">      0.00000000      0.00000000      0.00000000</v>
    <i type="logical" name="LZEROZ"> F  </i>
   </separator>
   <separator name="electronic exchange-correlation" >
    <i type="logical" name="LASPH"> F  </i>
    <i type="logical" name="LMETAGGA"> F  </i>
   </separator>
   <separator name="electronic convergence" >
    <i type="int" name="NELM">    60</i>
    <i type="int" name="NELMDL">     0</i>
    <i type="int" name="NELMIN">     2</i>
    <i name="ENINI">    280.00000000</i>
    <separator name="electronic convergence detail" >
     <i type="logical" name="LDIAG"> T  </i>
     <i type="logical" name="LSUBROT"> F  </i>
     <i name="WEIMIN">      0.00000000</i>
     <i name="EBREAK">      0.00000005</i>
     <i name="DEPER">      0.30000000</i>
     <i type="int" name="NRMM">     4</i>
     <i name="TIME">      0.40000000</i>
    </separator>
   </separator>
   <separator name="electronic mixer" >
    <i name="AMIX">      0.40000000</i>
    <i name="BMIX">      1.00000000</i>
    <i name="AMIN">      0.10000000</i>
    <i name="AMIX_MAG">      1.60000000</i>
    <i name="BMIX_MAG">      1.00000000</i>
    <separator name="electronic mixer details" >
     <i type="int" name="IMIX">     4</i>
     <i type="int" name="MAXMIX">   -45</i>
     <i name="WC">    100.00000000</i>
     <i type="int" name="INIMIX">     1</i>
     <i type="int" name="MIXPRE">     1</i>
     <i type="int" name="MREMOVE">     5</i>
    </separator>
   </separator>
   <separator name="electronic dipolcorrection" >
    <i type="logical" name="LDIPOL"> F  </i>
    <i type="logical" name="LMONO"> F  </i>
    <i type="int" name="IDIPOL">     0</i>
    <i name="EPSILON">      1.00000000</i>
    <v name="DIPOL">   -100.00000000   -100.00000000   -100.00000000</v>
    <i name="EFIELD">      0.00000000</i>
   </separator>
  </separator>
  <separator name="grids" >
   <i type="int" name="NGX">    28</i>
   <i type="int" name="NGY">    28</i>
   <i type="int" name="NGZ">    28</i>
   <i type="int" name="NGXF">    56</i>
   <i type="int" name="NGYF">    56</i>
   <i type="int" name="NGZF">    56</i>
   <i type="logical" name="ADDGRID"> F  </i>
  </separator>
  <separator name="ionic" >
   <i type="int" name="NSW">     0</i>
   <i type="int" name="IBRION">    -1</i>
   <i type="int" name="ISIF">     2</i>
   <i name="PSTRESS">      0.00000000</i>
   <i name="EDIFFG">      0.00010000</i>
   <i type="int" name="NFREE">     0</i>
   <i name="POTIM">      0.50000000</i>
   <i name="SMASS">     -3.00000000</i>
   <i name="SCALEE">      1.00000000</i>
  </separator>
  <separator name="ionic md" >
   <i name="TEBEG">      0.00010000</i>
   <i name="TEEND">      0.00010000</i>
   <i type="int" name="NBLOCK">     1</i>
   <i type="int" name="KBLOCK">     1</i>
   <i type="int" name="NPACO">   256</i>
   <i name="APACO">     16.00000000</i>
  </separator>
  <separator name="symmetry" >
   <i type="int" name="ISYM">     2</i>
   <i name="SYMPREC">      0.00001000</i>
  </separator>
  <separator name="dos" >
   <i type="logical" name="LORBIT"> F  </i>
   <v name="RWIGS">     -1.00000000     -1.00000000</v>
   <i type="int" name="NEDOS">   301</i>
   <i name="EMIN">     10.00000000</i>
   <i name="EMAX">    -10.00000000</i>
   <i name="EFERMI">      0.00000000</i>
  </separator>
  <separator name="writing" >
   <i type="int" name="NWRITE">     2</i>
   <i type="logical" name="LWAVE"> T  </i>
   <i type="logical" name="LCHARG"> T  </i>
   <i type="logical" name="LPARD"> F  </i>
   <i type="logical" name="LVTOT"> F  </i>
   <i type="logical" name="LVHAR"> F  </i>
   <i type="logical" name="LELF"> F  </i>
   <i type="logical" name="LOPTICS"> F  </i>
   <v name="STM">      0.00000000      0.00000000      0.00000000      0.00000000      0.00000000      0.00000000      0.00000000</v>
  </separator>
  <separator name="performance" >
   <i type="int" name="NPAR">    24</i>
   <i type="int" name="NSIM">     4</i>
   <i type="int" name="NBLK">    -1</i>
   <i type="logical" name="LPLANE"> T  </i>
   <i type="logical" name="LSCALAPACK"> T  </i>
   <i type="logical" name="LSCAAWARE"> F  </i>
   <i type="logical" name="LSCALU"> F  </i>
   <i type="logical" name="LASYNC"> F  </i>
   <i type="logical" name="LORBITALREAL"> F  </i>
  </separator>
  <separator name="miscellaneous" >
   <i type="int" name="IDIOT">     3</i>
   <i type="logical" name="LMUSIC"> F  </i>
   <v name="POMASS">    114.82000000     74.92200000</v>
   <v name="DARWINR">      0.00000000      0.00000000</v>
   <v name="DARWINV">      1.00000000      1.00000000</v>
   <i type="logical" name="LCORR"> T  </i>
  </separator>
  <i type="logical" name="GGA_COMPAT"> F  </i>
  <i type="logical" name="LBERRY"> F  </i>
  <i type="int" name="ICORELEVEL">     0</i>
  <i type="logical" name="LDAU"> F  </i>
  <i type="int" name="I_CONSTRAINED_M">     0</i>
  <separator name="electronic exchange-correlation" >
   <i type="string" name="GGA">NO</i>
   <i type="int" name="VOSKOWN">     0</i>
   <i type="logical" name="LHFCALC"> F  </i>
   <i type="string" name="PRECFOCK"></i>
   <i type="logical" name="LSYMGRAD"> F  </i>
   <i type="logical" name="LHFONE"> F  </i>
   <i type="logical" name="LRHFCALC"> F  </i>
   <i type="logical" name="LTHOMAS"> F  </i>
   <i type="logical" name="LMODELHF"> F  </i>
   <i name="ENCUT4O">     -1.00000000</i>
   <i type="int" name="EXXOEP">     0</i>
   <i type="int" name="FOURORBIT">     0</i>
   <i name="AEXX">      0.00000000</i>
   <i name="HFALPHA">      0.00000000</i>
   <i name="MCALPHA">      0.00000000</i>
   <i name="ALDAX">      1.00000000</i>
   <i name="AGGAX">      1.00000000</i>
   <i name="ALDAC">      1.00000000</i>
   <i name="AGGAC">      1.00000000</i>
   <i type="int" name="NKREDX">     1</i>
   <i type="int" name="NKREDY">     1</i>
   <i type="int" name="NKREDZ">     1</i>
   <i type="logical" name="SHIFTRED"> F  </i>
   <i type="logical" name="ODDONLY"> F  </i>
   <i type="logical" name="EVENONLY"> F  </i>
   <i type="int" name="LMAXFOCK">     0</i>
   <i type="int" name="NMAXFOCKAE">     0</i>
   <i type="logical" name="LFOCKAEDFT"> F  </i>
   <i name="HFSCREEN">      0.00000000</i>
   <i name="HFSCREENC">      0.00000000</i>
   <i type="int" name="NBANDSGWLOW">     0</i>
  </separator>
  <separator name="vdW DFT" >
   <i type="logical" name="LUSE_VDW"> F  </i>
   <i name="Zab_VDW">     -0.84910000</i>
   <i name="PARAM1">      0.12340000</i>
   <i name="PARAM2">      1.00000000</i>
   <i name="PARAM3">      0.00000000</i>
  </separator>
  <separator name="model GW" >
   <i type="int" name="MODEL_GW">     0</i>
   <i name="MODEL_EPS0">     16.67732886</i>
   <i name="MODEL_ALPHA">      1.00000000</i>
  </separator>
  <separator name="linear response parameters" >
   <i type="logical" name="LEPSILON"> F  </i>
   <i type="logical" name="LRPA"> F  </i>
   <i type="logical" name="LNABLA"> F  </i>
   <i type="logical" name="LVEL"> F  </i>
   <i type="int" name="KINTER">     0</i>
   <i name="CSHIFT">      0.10000000</i>
   <i name="OMEGAMAX">     -1.00000000</i>
   <i name="DEG_THRESHOLD">      0.00200000</i>
  </separator>
  <separator name="orbital magnetization" >
   <i type="logical" name="NUCIND"> F  </i>
   <v name="MAGPOS">      0.00000000      0.00000000      0.00000000</v>
   <i type="logical" name="LNICSALL"> T  </i>
   <i type="logical" name="ORBITALMAG"> F  </i>
   <i type="logical" name="LMAGBLOCH"> F  </i>
   <i type="logical" name="LCHIMAG"> F  </i>
   <i type="logical" name="LGAUGE"> T  </i>
   <i type="int" name="MAGATOM">     0</i>
   <v name="MAGDIPOL">      0.00000000      0.00000000      0.00000000</v>
   <v name="AVECCONST">      0.00000000      0.00000000      0.00000000</v>
  </separator>
  <separator name="response functions" >
   <i type="logical" name="LADDER"> F  </i>
   <i type="logical" name="LFXC"> F  </i>
   <i type="logical" name="LHARTREE"> T  </i>
   <i type="int" name="IBSE">     0</i>
   <i type="logical" name="LTCTE"> F  </i>
   <i type="logical" name="LTETE"> F  </i>
   <i type="logical" name="LTRIPLET"> F  </i>
   <i type="logical" name="LFXCEPS"> F  </i>
   <i type="logical" name="LFXHEG"> F  </i>
   <i type="logical" name="L2ORDER"> F  </i>
   <i type="logical" name="LUSEW"> F  </i>
   <i name="ENCUTGW">     -2.00000000</i>
   <i name="ENCUTGWSOFT">     -2.00000000</i>
   <i name="ENCUTLF">     -1.00000000</i>
   <i type="int" name="LMAXMP2">    -1</i>
   <i name="SCISSOR">      0.00000000</i>
   <i type="int" name="NOMEGA">     0</i>
   <i type="int" name="NOMEGAR">     0</i>
   <i type="int" name="NBANDSGW">    -1</i>
   <i type="int" name="NBANDSO">    -1</i>
   <i type="int" name="NBANDSV">    -1</i>
   <i type="int" name="NELM">     1</i>
   <i type="int" name="DIM">     3</i>
   <i type="int" name="ANTIRES">     0</i>
   <i name="OMEGAMAX">    -30.00000000</i>
   <i name="OMEGAMIN">    -30.00000000</i>
   <i name="OMEGATL">   -200.00000000</i>
   <i type="int" name="OMEGAGRID">     0</i>
   <i name="CSHIFT">     -0.10000000</i>
   <i type="logical" name="SELFENERGY"> F  </i>
   <i type="logical" name="LSPECTRAL"> F  </i>
   <i type="logical" name="ODDONLYGW"> F  </i>
   <i type="logical" name="EVENONLYGW"> F  </i>
   <i type="int" name="NKREDLFX">     1</i>
   <i type="int" name="NKREDLFY">     1</i>
   <i type="int" name="NKREDLFZ">     1</i>
   <i type="int" name="MAXMEM">  1800</i>
   <i type="int" name="TELESCOPE">     0</i>
   <i type="int" name="TAUPAR">     1</i>
  </separator>
  <separator name="External order field" >
   <i name="OFIELD_KAPPA">      0.00000000</i>
   <v name="OFIELD_K">      0.00000000      0.00000000      0.00000000</v>
   <i name="OFIELD_Q6_NEAR">      0.00000000</i>
   <i name="OFIELD_Q6_FAR">      0.00000000</i>
   <i name="OFIELD_A">      0.00000000</i>
  </separator>
 </parameters>
 <atominfo>
  <atoms>       8 </atoms>
  <types>       2 </types>
  <array name="atoms" >
   <dimension dim="1">ion</dimension>
   <field type="string">element</field>
   <field type="int">atomtype</field>
   <set>
    <rc><c>In</c><c>   1</c></rc>
    <rc><c>In</c><c>   1</c></rc>
    <rc><c>In</c><c>   1</c></rc>
    <rc><c>In</c><c>   1</c></rc>
    <rc><c>As</c><c>   2</c></rc>
    <rc><c>As</c><c>   2</c></rc>
    <rc><c>As</c><c>   2</c></rc>
    <rc><c>As</c><c>   2</c></rc>
   </set>
  </array>
  <array name="atomtypes" >
   <dimension dim="1">type</dimension>
   <field type="int">atomspertype</field>
   <field type="string">element</field>
   <field>mass</field>
   <field>valence</field>
   <field type="string">pseudopotential</field>
   <set>
    <rc><c>   4</c><c>In</c><c>    114.82000000</c><c>     13.00000000</c><c>  PAW In_d 11Feb1998                    </c></rc>
    <rc><c>   4</c><c>As</c><c>     74.92200000</c><c>      5.00000000</c><c>  PAW As 15Mar2012                      </c></rc>
   </set>
  </array>
 </atominfo>
 <structure name="initialpos" >
  <crystal>
   <varray name="basis" >
    <v>       6.05836000       0.00000000       0.00000000 </v>
    <v>       0.00000000       6.05836000       0.00000000 </v>
    <v>       0.00000000       0.00000000       6.05836000 </v>
   </varray>
   <i name="volume">    222.36438478 </i>
   <varray name="rec_basis" >
    <v>       0.16506117      -0.00000000      -0.00000000 </v>
    <v>       0.00000000       0.16506117      -0.00000000 </v>
    <v>       0.00000000       0.00000000       0.16506117 </v>
   </varray>
  </crystal>
  <varray name="positions" >
   <v>       0.00000000       0.00000000       0.00000000 </v>
   <v>       0.00000000       0.50000000       0.50000000 </v>
   <v>       0.50000000       0.00000000       0.50000000 </v>
   <v>       0.50000000       0.50000000       0.00000000 </v>
   <v>       0.75000000       0.75000000       0.25000000 </v>
   <v>       0.75000000       0.25000000       0.75000000 </v>
   <v>       0.25000000       0.75000000       0.75000000 </v>
   <v>       0.25000000       0.25000000       0.25000000 </v>
  </varray>
 </structure>
 <calculation>
  <scstep>
   <time name="dav">    0.65    0.67</time>
   <time name="total">    0.66    0.69</time>
   <energy>
    <i name="alphaZ">    143.09218016 </i>
    <i name="ewald">  -4723.81431873 </i>
    <i name="hartreedc">  -2272.51973026 </i>
    <i name="XCdc">    124.00184003 </i>
    <i name="pawpsdc">   9265.98528362 </i>
    <i name="pawaedc">  -9162.30597326 </i>
    <i name="eentropy">     -0.00120517 </i>
    <i name="bandstr">   -416.94016579 </i>
    <i name="atom">   7006.40531930 </i>
    <i name="e_fr_energy">    -36.09677011 </i>
    <i name="e_wo_entrp">    -36.09556493 </i>
    <i name="e_0_energy">    -36.09616752 </i>
   </energy>
  </scstep>
  <scstep>
   <time name="dav">    0.56    0.56</time>
   <time name="total">    0.57    0.57</time>
   <energy>
    <i name="alphaZ">    143.09218016 </i>
    <i name="ewald">  -4723.81431873 </i>
    <i name="hartreedc">  -2272.51973026 </i>
    <i name="XCdc">    124.00184003 </i>
    <i name="pawpsdc">   9265.98528362 </i>
    <i name="pawaedc">  -9162.30597326 </i>
    <i name="eentropy">     -0.00120517 </i>
    <i name="bandstr">   -416.94016721 </i>
    <i name="atom">   7006.40531930 </i>
    <i name="e_fr_energy">    -36.09677152 </i>
    <i name="e_wo_entrp">    -36.09556635 </i>
    <i name="e_0_energy">    -36.09616894 </i>
   </energy>
  </scstep>
  <structure>
   <crystal>
    <varray name="basis" >
     <v>       6.05836000       0.00000000       0.00000000 </v>
     <v>       0.00000000       6.05836000       0.00000000 </v>
     <v>       0.00000000       0.00000000       6.05836000 </v>
    </varray>
    <i name="volume">    222.36438478 </i>
    <varray name="rec_basis" >
     <v>       0.16506117      -0.00000000      -0.00000000 </v>
     <v>       0.00000000       0.16506117      -0.00000000 </v>
     <v>       0.00000000       0.00000000       0.16506117 </v>
    </varray>
   </crystal>
   <varray name="positions" >
    <v>       0.00000000       0.00000000       0.00000000 </v>
    <v>       0.00000000       0.50000000       0.50000000 </v>
    <v>       0.50000000       0.00000000       0.50000000 </v>
    <v>       0.50000000       0.50000000       0.00000000 </v>
    <v>       0.75000000       0.75000000       0.25000000 </v>
    <v>       0.75000000       0.25000000       0.75000000 </v>
    <v>       0.25000000       0.75000000       0.75000000 </v>
    <v>       0.25000000       0.25000000       0.25000000 </v>
   </varray>
  </structure>
  <varray name="forces" >
   <v>       0.00000000      -0.00000000      -0.00000000 </v>
   <v>      -0.00000000       0.00000000       0.00000000 </v>
   <v>      -0.00000000       0.00000000      -0.00000000 </v>
   <v>       0.00000000       0.00000000      -0.00000000 </v>
   <v>       0.00000000      -0.00000000       0.00000000 </v>
   <v>       0.00000000      -0.00000000       0.00000000 </v>
   <v>       0.00000000      -0.00000000       0.00000000 </v>
   <v>       0.00000000      -0.00000000       0.00000000 </v>
  </varray>
  <varray name="stress" >
   <v>      -8.50955439      -0.00000000      -0.00000000 </v>
   <v>      -0.00000000      -8.50955439      -0.00000000 </v>
   <v>      -0.00000000      -0.00000000      -8.50955439 </v>
  </varray>
  <energy>
   <i name="e_fr_energy">    -36.09677152 </i>
   <i name="e_wo_entrp">    -36.09616894 </i>
   <i name="e_0_energy">     -0.00120517 </i>
  </energy>
  <time name="totalsc">   18.24   19.90</time>
  <eigenvalues_disable>
   <array>
    <dimension dim="1">band</dimension>
    <dimension dim="2">kpoint</dimension>
    <dimension dim="3">spin</dimension>
    <field>eigene</field>
    <field>occ</field>
    <set>
     <set comment="spin 1">
      <set comment="kpoint 1">
       <r>  -10.2237    1.0000 </r>
       <r>  -10.2237    1.0000 </r>
       <r>  -10.2237    1.0000 </r>
       <r>  -10.0377    1.0000 </r>
       <r>  -10.0377    1.0000 </r>
       <r>  -10.0377    1.0000 </r>
       <r>   -9.9563    1.0000 </r>
       <r>   -9.9563    1.0000 </r>
       <r>   -9.9563    1.0000 </r>
       <r>   -9.9563    1.0000 </r>
       <r>   -9.9563    1.0000 </r>
       <r>   -9.9563    1.0000 </r>
       <r>   -9.9473    1.0000 </r>
       <r>   -9.9473    1.0000 </r>
       <r>   -9.9473    1.0000 </r>
       <r>   -9.9085    1.0000 </r>
       <r>   -9.9085    1.0000 </r>
       <r>   -9.8856    1.0000 </r>
       <r>   -9.8856    1.0000 </r>
       <r>   -9.8856    1.0000 </r>
       <r>   -7.5982    1.0000 </r>
       <r>   -5.5930    1.0000 </r>
       <r>   -5.5930    1.0000 </r>
       <r>   -5.5930    1.0000 </r>
       <r>   -1.6139    1.0000 </r>
       <r>   -1.6139    1.0000 </r>
       <r>   -1.6139    1.0000 </r>
       <r>    1.9526    1.0000 </r>
       <r>    1.9526    1.0000 </r>
       <r>    1.9526    1.0000 </r>
       <r>    1.9526    1.0000 </r>
       <r>    1.9526    1.0000 </r>
       <r>    1.9526    1.0000 </r>
       <r>    3.8555    1.0000 </r>
       <r>    4.2811    0.6667 </r>
       <r>    4.2811    0.6667 </r>
       <r>    4.2811    0.6667 </r>
       <r>    5.7109    0.0000 </r>
       <r>    5.7109    0.0000 </r>
       <r>    5.7109    0.0000 </r>
       <r>    6.2361    0.0000 </r>
       <r>    6.2361    0.0000 </r>
       <r>    6.2361    0.0000 </r>
       <r>    8.1000    0.0000 </r>
       <r>    8.1000    0.0000 </r>
       <r>    8.1000    0.0000 </r>
       <r>   11.5409    0.0000 </r>
       <r>   13.2463    0.0000 </r>
      </set>
      <set comment="kpoint 2">
       <r>  -10.2128    1.0000 </r>
       <r>  -10.2128    1.0000 </r>
       <r>  -10.2010    1.0000 </r>
       <r>  -10.0710    1.0000 </r>
       <r>  -10.0260    1.0000 </r>
       <r>  -10.0260    1.0000 </r>
       <r>   -9.9717    1.0000 </r>
       <r>   -9.9717    1.0000 </r>
       <r>   -9.9688    1.0000 </r>
       <r>   -9.9688    1.0000 </r>
       <r>   -9.9608    1.0000 </r>
       <r>   -9.9608    1.0000 </r>
       <r>   -9.9408    1.0000 </r>
       <r>   -9.9366    1.0000 </r>
       <r>   -9.9366    1.0000 </r>
       <r>   -9.9129    1.0000 </r>
       <r>   -9.9050    1.0000 </r>
       <r>   -9.8914    1.0000 </r>
       <r>   -9.8914    1.0000 </r>
       <r>   -9.8890    1.0000 </r>
       <r>   -7.3836    1.0000 </r>
       <r>   -6.0286    1.0000 </r>
       <r>   -5.5674    1.0000 </r>
       <r>   -5.5674    1.0000 </r>
       <r>   -1.5484    1.0000 </r>
       <r>   -1.5484    1.0000 </r>
       <r>   -0.9451    1.0000 </r>
       <r>    1.6145    1.0000 </r>
       <r>    1.6145    1.0000 </r>
       <r>    1.6444    1.0000 </r>
       <r>    1.6444    1.0000 </r>
       <r>    2.1882    1.0000 </r>
       <r>    2.1882    1.0000 </r>
       <r>    2.2228    1.0000 </r>
       <r>    3.7473    1.0000 </r>
       <r>    3.7473    1.0000 </r>
       <r>    5.8642    0.0000 </r>
       <r>    5.8836    0.0000 </r>
       <r>    6.5650    0.0000 </r>
       <r>    6.6463    0.0000 </r>
       <r>    6.6463    0.0000 </r>
       <r>    7.0877    0.0000 </r>
       <r>    7.0877    0.0000 </r>
       <r>    7.3999    0.0000 </r>
       <r>    8.8601    0.0000 </r>
       <r>    8.8601    0.0000 </r>
       <r>   11.4812    0.0000 </r>
       <r>   11.4812    0.0000 </r>
      </set>
      <set comment="kpoint 3">
       <r>  -10.2004    1.0000 </r>
       <r>  -10.2004    1.0000 </r>
       <r>  -10.1411    1.0000 </r>
       <r>  -10.1411    1.0000 </r>
       <r>   -9.9978    1.0000 </r>
       <r>   -9.9978    1.0000 </r>
       <r>   -9.9978    1.0000 </r>
       <r>   -9.9978    1.0000 </r>
       <r>   -9.9884    1.0000 </r>
       <r>   -9.9884    1.0000 </r>
       <r>   -9.9629    1.0000 </r>
       <r>   -9.9629    1.0000 </r>
       <r>   -9.9261    1.0000 </r>
       <r>   -9.9261    1.0000 </r>
       <r>   -9.9252    1.0000 </r>
       <r>   -9.9252    1.0000 </r>
       <r>   -9.9000    1.0000 </r>
       <r>   -9.9000    1.0000 </r>
       <r>   -9.8970    1.0000 </r>
       <r>   -9.8970    1.0000 </r>
       <r>   -6.7970    1.0000 </r>
       <r>   -6.7970    1.0000 </r>
       <r>   -5.5415    1.0000 </r>
       <r>   -5.5415    1.0000 </r>
       <r>   -1.4755    1.0000 </r>
       <r>   -1.4755    1.0000 </r>
       <r>    0.5079    1.0000 </r>
       <r>    0.5079    1.0000 </r>
       <r>    1.3182    1.0000 </r>
       <r>    1.3182    1.0000 </r>
       <r>    1.3936    1.0000 </r>
       <r>    1.3936    1.0000 </r>
       <r>    2.8491    1.0000 </r>
       <r>    2.8491    1.0000 </r>
       <r>    2.8491    1.0000 </r>
       <r>    2.8491    1.0000 </r>
       <r>    6.4343    0.0000 </r>
       <r>    6.4343    0.0000 </r>
       <r>    6.9294    0.0000 </r>
       <r>    6.9294    0.0000 </r>
       <r>    8.3864    0.0000 </r>
       <r>    8.3864    0.0000 </r>
       <r>    8.4834    0.0000 </r>
       <r>    8.4834    0.0000 </r>
       <r>    9.1334    0.0000 </r>
       <r>    9.1334    0.0000 </r>
       <r>   10.2381    0.0000 </r>
       <r>   10.2381    0.0000 </r>
      </set>
      <set comment="kpoint 4">
       <r>  -10.2030    1.0000 </r>
       <r>  -10.1935    1.0000 </r>
       <r>  -10.1935    1.0000 </r>
       <r>  -10.0886    1.0000 </r>
       <r>  -10.0251    1.0000 </r>
       <r>  -10.0193    1.0000 </r>
       <r>   -9.9819    1.0000 </r>
       <r>   -9.9819    1.0000 </r>
       <r>   -9.9794    1.0000 </r>
       <r>   -9.9717    1.0000 </r>
       <r>   -9.9717    1.0000 </r>
       <r>   -9.9677    1.0000 </r>
       <r>   -9.9320    1.0000 </r>
       <r>   -9.9320    1.0000 </r>
       <r>   -9.9296    1.0000 </r>
       <r>   -9.9116    1.0000 </r>
       <r>   -9.9055    1.0000 </r>
       <r>   -9.8959    1.0000 </r>
       <r>   -9.8929    1.0000 </r>
       <r>   -9.8929    1.0000 </r>
       <r>   -7.1816    1.0000 </r>
       <r>   -5.9407    1.0000 </r>
       <r>   -5.9407    1.0000 </r>
       <r>   -5.6094    1.0000 </r>
       <r>   -1.4807    1.0000 </r>
       <r>   -1.0554    1.0000 </r>
       <r>   -1.0554    1.0000 </r>
       <r>    0.9946    1.0000 </r>
       <r>    1.3143    1.0000 </r>
       <r>    1.6877    1.0000 </r>
       <r>    1.6877    1.0000 </r>
       <r>    2.1654    1.0000 </r>
       <r>    2.1654    1.0000 </r>
       <r>    2.3269    1.0000 </r>
       <r>    3.1679    1.0000 </r>
       <r>    4.0360    1.0000 </r>
       <r>    5.9538    0.0000 </r>
       <r>    6.2774    0.0000 </r>
       <r>    6.8496    0.0000 </r>
       <r>    6.8496    0.0000 </r>
       <r>    7.2465    0.0000 </r>
       <r>    7.2465    0.0000 </r>
       <r>    8.1351    0.0000 </r>
       <r>    8.4481    0.0000 </r>
       <r>    8.5028    0.0000 </r>
       <r>    9.2374    0.0000 </r>
       <r>    9.9980    0.0000 </r>
       <r>    9.9980    0.0000 </r>
      </set>
      <set comment="kpoint 5">
       <r>  -10.1885    1.0000 </r>
       <r>  -10.1885    1.0000 </r>
       <r>  -10.1433    1.0000 </r>
       <r>  -10.1433    1.0000 </r>
       <r>  -10.0038    1.0000 </r>
       <r>  -10.0038    1.0000 </r>
       <r>   -9.9991    1.0000 </r>
       <r>   -9.9991    1.0000 </r>
       <r>   -9.9932    1.0000 </r>
       <r>   -9.9932    1.0000 </r>
       <r>   -9.9735    1.0000 </r>
       <r>   -9.9735    1.0000 </r>
       <r>   -9.9203    1.0000 </r>
       <r>   -9.9203    1.0000 </r>
       <r>   -9.9197    1.0000 </r>
       <r>   -9.9197    1.0000 </r>
       <r>   -9.9020    1.0000 </r>
       <r>   -9.9020    1.0000 </r>
       <r>   -9.8989    1.0000 </r>
       <r>   -9.8989    1.0000 </r>
       <r>   -6.6348    1.0000 </r>
       <r>   -6.6348    1.0000 </r>
       <r>   -5.7521    1.0000 </r>
       <r>   -5.7521    1.0000 </r>
       <r>   -1.2942    1.0000 </r>
       <r>   -1.2942    1.0000 </r>
       <r>    0.0299    1.0000 </r>
       <r>    0.0299    1.0000 </r>
       <r>    1.0472    1.0000 </r>
       <r>    1.0472    1.0000 </r>
       <r>    2.2675    1.0000 </r>
       <r>    2.2675    1.0000 </r>
       <r>    2.3114    1.0000 </r>
       <r>    2.3114    1.0000 </r>
       <r>    3.1753    1.0000 </r>
       <r>    3.1753    1.0000 </r>
       <r>    6.9679    0.0000 </r>
       <r>    6.9679    0.0000 </r>
       <r>    7.3661    0.0000 </r>
       <r>    7.3661    0.0000 </r>
       <r>    7.4458    0.0000 </r>
       <r>    7.4458    0.0000 </r>
       <r>    8.8689    0.0000 </r>
       <r>    8.8689    0.0000 </r>
       <r>    9.2448    0.0000 </r>
       <r>    9.2448    0.0000 </r>
       <r>    9.3225    0.0000 </r>
       <r>    9.3225    0.0000 </r>
      </set>
      <set comment="kpoint 6">
       <r>  -10.1615    1.0000 </r>
       <r>  -10.1615    1.0000 </r>
       <r>  -10.1615    1.0000 </r>
       <r>  -10.1615    1.0000 </r>
       <r>   -9.9998    1.0000 </r>
       <r>   -9.9998    1.0000 </r>
       <r>   -9.9998    1.0000 </r>
       <r>   -9.9998    1.0000 </r>
       <r>   -9.9960    1.0000 </r>
       <r>   -9.9960    1.0000 </r>
       <r>   -9.9960    1.0000 </r>
       <r>   -9.9960    1.0000 </r>
       <r>   -9.9104    1.0000 </r>
       <r>   -9.9104    1.0000 </r>
       <r>   -9.9104    1.0000 </r>
       <r>   -9.9104    1.0000 </r>
       <r>   -9.9065    1.0000 </r>
       <r>   -9.9065    1.0000 </r>
       <r>   -9.9065    1.0000 </r>
       <r>   -9.9065    1.0000 </r>
       <r>   -6.2173    1.0000 </r>
       <r>   -6.2173    1.0000 </r>
       <r>   -6.2173    1.0000 </r>
       <r>   -6.2173    1.0000 </r>
       <r>   -0.7489    1.0000 </r>
       <r>   -0.7489    1.0000 </r>
       <r>   -0.7489    1.0000 </r>
       <r>   -0.7489    1.0000 </r>
       <r>    1.4357    1.0000 </r>
       <r>    1.4357    1.0000 </r>
       <r>    1.4357    1.0000 </r>
       <r>    1.4357    1.0000 </r>
       <r>    3.2329    1.0000 </r>
       <r>    3.2329    1.0000 </r>
       <r>    3.2329    1.0000 </r>
       <r>    3.2329    1.0000 </r>
       <r>    6.7508    0.0000 </r>
       <r>    6.7508    0.0000 </r>
       <r>    6.7508    0.0000 </r>
       <r>    6.7508    0.0000 </r>
       <r>    9.1618    0.0000 </r>
       <r>    9.1618    0.0000 </r>
       <r>    9.1618    0.0000 </r>
       <r>    9.1618    0.0000 </r>
       <r>    9.4807    0.0000 </r>
       <r>    9.4807    0.0000 </r>
       <r>    9.4807    0.0000 </r>
       <r>    9.4807    0.0000 </r>
      </set>
      <set comment="kpoint 7">
       <r>  -10.1876    1.0000 </r>
       <r>  -10.1876    1.0000 </r>
       <r>  -10.1876    1.0000 </r>
       <r>  -10.1051    1.0000 </r>
       <r>  -10.0190    1.0000 </r>
       <r>  -10.0190    1.0000 </r>
       <r>   -9.9881    1.0000 </r>
       <r>   -9.9881    1.0000 </r>
       <r>   -9.9881    1.0000 </r>
       <r>   -9.9793    1.0000 </r>
       <r>   -9.9793    1.0000 </r>
       <r>   -9.9793    1.0000 </r>
       <r>   -9.9246    1.0000 </r>
       <r>   -9.9246    1.0000 </r>
       <r>   -9.9246    1.0000 </r>
       <r>   -9.9073    1.0000 </r>
       <r>   -9.9073    1.0000 </r>
       <r>   -9.8953    1.0000 </r>
       <r>   -9.8953    1.0000 </r>
       <r>   -9.8953    1.0000 </r>
       <r>   -6.9954    1.0000 </r>
       <r>   -5.9045    1.0000 </r>
       <r>   -5.9045    1.0000 </r>
       <r>   -5.9045    1.0000 </r>
       <r>   -1.2295    1.0000 </r>
       <r>   -1.2295    1.0000 </r>
       <r>   -1.2295    1.0000 </r>
       <r>    0.5186    1.0000 </r>
       <r>    1.5245    1.0000 </r>
       <r>    1.5245    1.0000 </r>
       <r>    1.5245    1.0000 </r>
       <r>    2.5231    1.0000 </r>
       <r>    2.5231    1.0000 </r>
       <r>    2.5231    1.0000 </r>
       <r>    3.7064    1.0000 </r>
       <r>    3.7064    1.0000 </r>
       <r>    5.3689    0.0000 </r>
       <r>    6.4427    0.0000 </r>
       <r>    6.4427    0.0000 </r>
       <r>    6.4427    0.0000 </r>
       <r>    8.3986    0.0000 </r>
       <r>    8.3986    0.0000 </r>
       <r>    8.3986    0.0000 </r>
       <r>    8.8167    0.0000 </r>
       <r>    8.8167    0.0000 </r>
       <r>    9.2977    0.0000 </r>
       <r>   10.0496    0.0000 </r>
       <r>   10.0496    0.0000 </r>
      </set>
      <set comment="kpoint 8">
       <r>  -10.1811    1.0000 </r>
       <r>  -10.1811    1.0000 </r>
       <r>  -10.1478    1.0000 </r>
       <r>  -10.1478    1.0000 </r>
       <r>  -10.0066    1.0000 </r>
       <r>  -10.0066    1.0000 </r>
       <r>  -10.0016    1.0000 </r>
       <r>  -10.0016    1.0000 </r>
       <r>   -9.9974    1.0000 </r>
       <r>   -9.9974    1.0000 </r>
       <r>   -9.9838    1.0000 </r>
       <r>   -9.9838    1.0000 </r>
       <r>   -9.9145    1.0000 </r>
       <r>   -9.9145    1.0000 </r>
       <r>   -9.9140    1.0000 </r>
       <r>   -9.9140    1.0000 </r>
       <r>   -9.9011    1.0000 </r>
       <r>   -9.9011    1.0000 </r>
       <r>   -9.8990    1.0000 </r>
       <r>   -9.8990    1.0000 </r>
       <r>   -6.5001    1.0000 </r>
       <r>   -6.5001    1.0000 </r>
       <r>   -5.8672    1.0000 </r>
       <r>   -5.8672    1.0000 </r>
       <r>   -1.3951    1.0000 </r>
       <r>   -1.3951    1.0000 </r>
       <r>   -0.5238    1.0000 </r>
       <r>   -0.5238    1.0000 </r>
       <r>    1.5213    1.0000 </r>
       <r>    1.5213    1.0000 </r>
       <r>    2.6278    1.0000 </r>
       <r>    2.6278    1.0000 </r>
       <r>    2.7659    1.0000 </r>
       <r>    2.7659    1.0000 </r>
       <r>    3.0538    1.0000 </r>
       <r>    3.0538    1.0000 </r>
       <r>    6.1893    0.0000 </r>
       <r>    6.1893    0.0000 </r>
       <r>    6.9573    0.0000 </r>
       <r>    6.9573    0.0000 </r>
       <r>    8.2384    0.0000 </r>
       <r>    8.2384    0.0000 </r>
       <r>    8.2511    0.0000 </r>
       <r>    8.2511    0.0000 </r>
       <r>    9.6265    0.0000 </r>
       <r>    9.6265    0.0000 </r>
       <r>    9.8374    0.0000 </r>
       <r>    9.8375    0.0000 </r>
      </set>
      <set comment="kpoint 9">
       <r>  -10.1631    1.0000 </r>
       <r>  -10.1631    1.0000 </r>
       <r>  -10.1631    1.0000 </r>
       <r>  -10.1631    1.0000 </r>
       <r>  -10.0029    1.0000 </r>
       <r>  -10.0029    1.0000 </r>
       <r>  -10.0029    1.0000 </r>
       <r>  -10.0029    1.0000 </r>
       <r>  -10.0010    1.0000 </r>
       <r>  -10.0010    1.0000 </r>
       <r>  -10.0010    1.0000 </r>
       <r>  -10.0010    1.0000 </r>
       <r>   -9.9053    1.0000 </r>
       <r>   -9.9053    1.0000 </r>
       <r>   -9.9053    1.0000 </r>
       <r>   -9.9053    1.0000 </r>
       <r>   -9.9035    1.0000 </r>
       <r>   -9.9035    1.0000 </r>
       <r>   -9.9035    1.0000 </r>
       <r>   -9.9035    1.0000 </r>
       <r>   -6.1755    1.0000 </r>
       <r>   -6.1755    1.0000 </r>
       <r>   -6.1755    1.0000 </r>
       <r>   -6.1755    1.0000 </r>
       <r>   -1.2026    1.0000 </r>
       <r>   -1.2026    1.0000 </r>
       <r>   -1.2026    1.0000 </r>
       <r>   -1.2026    1.0000 </r>
       <r>    2.2774    1.0000 </r>
       <r>    2.2774    1.0000 </r>
       <r>    2.2774    1.0000 </r>
       <r>    2.2774    1.0000 </r>
       <r>    3.2602    1.0000 </r>
       <r>    3.2602    1.0000 </r>
       <r>    3.2602    1.0000 </r>
       <r>    3.2602    1.0000 </r>
       <r>    6.0619    0.0000 </r>
       <r>    6.0619    0.0000 </r>
       <r>    6.0619    0.0000 </r>
       <r>    6.0619    0.0000 </r>
       <r>    8.6473    0.0000 </r>
       <r>    8.6473    0.0000 </r>
       <r>    8.6473    0.0000 </r>
       <r>    8.6473    0.0000 </r>
       <r>    9.2123    0.0000 </r>
       <r>    9.2123    0.0000 </r>
       <r>    9.2123    0.0000 </r>
       <r>    9.2123    0.0000 </r>
      </set>
      <set comment="kpoint 10">
       <r>  -10.1648    1.0000 </r>
       <r>  -10.1648    1.0000 </r>
       <r>  -10.1648    1.0000 </r>
       <r>  -10.1648    1.0000 </r>
       <r>  -10.0056    1.0000 </r>
       <r>  -10.0056    1.0000 </r>
       <r>  -10.0056    1.0000 </r>
       <r>  -10.0056    1.0000 </r>
       <r>  -10.0056    1.0000 </r>
       <r>  -10.0056    1.0000 </r>
       <r>  -10.0056    1.0000 </r>
       <r>  -10.0056    1.0000 </r>
       <r>   -9.9006    1.0000 </r>
       <r>   -9.9006    1.0000 </r>
       <r>   -9.9006    1.0000 </r>
       <r>   -9.9006    1.0000 </r>
       <r>   -9.9006    1.0000 </r>
       <r>   -9.9006    1.0000 </r>
       <r>   -9.9006    1.0000 </r>
       <r>   -9.9006    1.0000 </r>
       <r>   -6.1319    1.0000 </r>
       <r>   -6.1319    1.0000 </r>
       <r>   -6.1319    1.0000 </r>
       <r>   -6.1319    1.0000 </r>
       <r>   -1.5301    1.0000 </r>
       <r>   -1.5301    1.0000 </r>
       <r>   -1.5301    1.0000 </r>
       <r>   -1.5301    1.0000 </r>
       <r>    3.2883    1.0000 </r>
       <r>    3.2883    1.0000 </r>
       <r>    3.2883    1.0000 </r>
       <r>    3.2883    1.0000 </r>
       <r>    3.2883    1.0000 </r>
       <r>    3.2883    1.0000 </r>
       <r>    3.2883    1.0000 </r>
       <r>    3.2883    1.0000 </r>
       <r>    5.0750    0.0000 </r>
       <r>    5.0750    0.0000 </r>
       <r>    5.0750    0.0000 </r>
       <r>    5.0750    0.0000 </r>
       <r>    8.8848    0.0000 </r>
       <r>    8.8848    0.0000 </r>
       <r>    8.8848    0.0000 </r>
       <r>    8.8848    0.0000 </r>
       <r>    8.8848    0.0000 </r>
       <r>    8.8848    0.0000 </r>
       <r>    8.8848    0.0000 </r>
       <r>    8.8848    0.0000 </r>
      </set>
     </set>
    </set>
   </array>
  </eigenvalues_disable>
  <separator name="orbital magnetization" >
   <v name="MAGDIPOLOUT">      0.00000000      0.00000000      0.00000000</v>
  </separator>
  <dos>
   <i name="efermi">      4.29634683 </i>
   <total>
    <array>
     <dimension dim="1">gridpoints</dimension>
     <dimension dim="2">spin</dimension>
     <field>energy</field>
     <field>total</field>
     <field>integrated</field>
     <set>
      <set comment="spin 1">
       <r>   -11.3972     0.0000     0.0000 </r>
       <r>   -11.3112     0.0000     0.0000 </r>
       <r>   -11.2251     0.0000     0.0000 </r>
       <r>   -11.1390     0.0000     0.0000 </r>
       <r>   -11.0530     0.0000     0.0000 </r>
       <r>   -10.9669     0.0000     0.0000 </r>
       <r>   -10.8809     0.0000     0.0000 </r>
       <r>   -10.7948     0.0000     0.0000 </r>
       <r>   -10.7088     0.0000     0.0000 </r>
       <r>   -10.6227     0.0000     0.0000 </r>
       <r>   -10.5366     0.0000     0.0000 </r>
       <r>   -10.4506     0.0000     0.0000 </r>
       <r>   -10.3645     0.0001     0.0000 </r>
       <r>   -10.2785     0.5338     0.0459 </r>
       <r>   -10.1924    29.0751     2.5481 </r>
       <r>   -10.1064    53.0513     7.1135 </r>
       <r>   -10.0203    54.2465    11.7817 </r>
       <r>    -9.9342   176.3645    26.9591 </r>
       <r>    -9.8482   142.0199    39.1808 </r>
       <r>    -9.7621     9.5125    39.9994 </r>
       <r>    -9.6761     0.0065    40.0000 </r>
       <r>    -9.5900     0.0000    40.0000 </r>
       <r>    -9.5040     0.0000    40.0000 </r>
       <r>    -9.4179     0.0000    40.0000 </r>
       <r>    -9.3318     0.0000    40.0000 </r>
       <r>    -9.2458     0.0000    40.0000 </r>
       <r>    -9.1597     0.0000    40.0000 </r>
       <r>    -9.0737     0.0000    40.0000 </r>
       <r>    -8.9876     0.0000    40.0000 </r>
       <r>    -8.9016     0.0000    40.0000 </r>
       <r>    -8.8155     0.0000    40.0000 </r>
       <r>    -8.7295     0.0000    40.0000 </r>
       <r>    -8.6434     0.0000    40.0000 </r>
       <r>    -8.5573     0.0000    40.0000 </r>
       <r>    -8.4713     0.0000    40.0000 </r>
       <r>    -8.3852     0.0000    40.0000 </r>
       <r>    -8.2992     0.0000    40.0000 </r>
       <r>    -8.2131     0.0000    40.0000 </r>
       <r>    -8.1271     0.0000    40.0000 </r>
       <r>    -8.0410     0.0000    40.0000 </r>
       <r>    -7.9549     0.0000    40.0000 </r>
       <r>    -7.8689     0.0000    40.0000 </r>
       <r>    -7.7828     0.0000    40.0000 </r>
       <r>    -7.6968     0.0010    40.0001 </r>
       <r>    -7.6107     0.1305    40.0113 </r>
       <r>    -7.5247     0.2250    40.0307 </r>
       <r>    -7.4386     0.1370    40.0425 </r>
       <r>    -7.3525     1.6344    40.1831 </r>
       <r>    -7.2665     0.4489    40.2217 </r>
       <r>    -7.1804     2.2038    40.4114 </r>
       <r>    -7.0944     2.0970    40.5918 </r>
       <r>    -7.0083     1.0615    40.6832 </r>
       <r>    -6.9223     1.8102    40.8390 </r>
       <r>    -6.8362     0.3472    40.8689 </r>
       <r>    -6.7502     1.6905    41.0143 </r>
       <r>    -6.6641     1.9745    41.1843 </r>
       <r>    -6.5780     6.5863    41.7511 </r>
       <r>    -6.4920     5.5041    42.2247 </r>
       <r>    -6.4059     3.5284    42.5284 </r>
       <r>    -6.3199     0.0419    42.5320 </r>
       <r>    -6.2338     1.8246    42.6890 </r>
       <r>    -6.1478     9.7253    43.5259 </r>
       <r>    -6.0617     3.3101    43.8108 </r>
       <r>    -5.9756     3.2981    44.0946 </r>
       <r>    -5.8896    14.6870    45.3585 </r>
       <r>    -5.8035    10.2986    46.2448 </r>
       <r>    -5.7175     6.9892    46.8462 </r>
       <r>    -5.6314     2.8991    47.0957 </r>
       <r>    -5.5454     7.9155    47.7769 </r>
       <r>    -5.4593     2.5659    47.9977 </r>
       <r>    -5.3732     0.0268    48.0000 </r>
       <r>    -5.2872     0.0000    48.0000 </r>
       <r>    -5.2011     0.0000    48.0000 </r>
       <r>    -5.1151     0.0000    48.0000 </r>
       <r>    -5.0290     0.0000    48.0000 </r>
       <r>    -4.9430     0.0000    48.0000 </r>
       <r>    -4.8569     0.0000    48.0000 </r>
       <r>    -4.7708     0.0000    48.0000 </r>
       <r>    -4.6848     0.0000    48.0000 </r>
       <r>    -4.5987     0.0000    48.0000 </r>
       <r>    -4.5127     0.0000    48.0000 </r>
       <r>    -4.4266     0.0000    48.0000 </r>
       <r>    -4.3406     0.0000    48.0000 </r>
       <r>    -4.2545     0.0000    48.0000 </r>
       <r>    -4.1685     0.0000    48.0000 </r>
       <r>    -4.0824     0.0000    48.0000 </r>
       <r>    -3.9963     0.0000    48.0000 </r>
       <r>    -3.9103     0.0000    48.0000 </r>
       <r>    -3.8242     0.0000    48.0000 </r>
       <r>    -3.7382     0.0000    48.0000 </r>
       <r>    -3.6521     0.0000    48.0000 </r>
       <r>    -3.5661     0.0000    48.0000 </r>
       <r>    -3.4800     0.0000    48.0000 </r>
       <r>    -3.3939     0.0000    48.0000 </r>
       <r>    -3.3079     0.0000    48.0000 </r>
       <r>    -3.2218     0.0000    48.0000 </r>
       <r>    -3.1358     0.0000    48.0000 </r>
       <r>    -3.0497     0.0000    48.0000 </r>
       <r>    -2.9637     0.0000    48.0000 </r>
       <r>    -2.8776     0.0000    48.0000 </r>
       <r>    -2.7915     0.0000    48.0000 </r>
       <r>    -2.7055     0.0000    48.0000 </r>
       <r>    -2.6194     0.0000    48.0000 </r>
       <r>    -2.5334     0.0000    48.0000 </r>
       <r>    -2.4473     0.0000    48.0000 </r>
       <r>    -2.3613     0.0000    48.0000 </r>
       <r>    -2.2752     0.0000    48.0000 </r>
       <r>    -2.1891     0.0000    48.0000 </r>
       <r>    -2.1031     0.0000    48.0000 </r>
       <r>    -2.0170     0.0000    48.0000 </r>
       <r>    -1.9310     0.0000    48.0000 </r>
       <r>    -1.8449     0.0000    48.0000 </r>
       <r>    -1.7589     0.0000    48.0000 </r>
       <r>    -1.6728     0.0531    48.0046 </r>
       <r>    -1.5868     1.4882    48.1326 </r>
       <r>    -1.5007     6.4520    48.6879 </r>
       <r>    -1.4146     7.7436    49.3543 </r>
       <r>    -1.3286     7.6174    50.0098 </r>
       <r>    -1.2425    11.1141    50.9662 </r>
       <r>    -1.1565    12.8402    52.0712 </r>
       <r>    -1.0704     3.9162    52.4082 </r>
       <r>    -0.9844     5.8850    52.9147 </r>
       <r>    -0.8983     1.8791    53.0764 </r>
       <r>    -0.8122     0.3614    53.1075 </r>
       <r>    -0.7262     3.0651    53.3713 </r>
       <r>    -0.6401     1.1327    53.4687 </r>
       <r>    -0.5541     1.7097    53.6159 </r>
       <r>    -0.4680     6.5071    54.1758 </r>
       <r>    -0.3820     0.4984    54.2187 </r>
       <r>    -0.2959     0.0003    54.2187 </r>
       <r>    -0.2098     0.0000    54.2188 </r>
       <r>    -0.1238     0.0001    54.2188 </r>
       <r>    -0.0377     0.2432    54.2397 </r>
       <r>     0.0483     5.8489    54.7430 </r>
       <r>     0.1344     2.6094    54.9676 </r>
       <r>     0.2204     0.0136    54.9687 </r>
       <r>     0.3065     0.0000    54.9688 </r>
       <r>     0.3925     0.0017    54.9689 </r>
       <r>     0.4786     0.8170    55.0392 </r>
       <r>     0.5647     3.8672    55.3720 </r>
       <r>     0.6507     0.3977    55.4062 </r>
       <r>     0.7368     0.0003    55.4062 </r>
       <r>     0.8228     0.0000    55.4063 </r>
       <r>     0.9089     0.0339    55.4092 </r>
       <r>     0.9949     2.7719    55.6477 </r>
       <r>     1.0810     8.7588    56.4015 </r>
       <r>     1.1671     1.5052    56.5310 </r>
       <r>     1.2531     0.2564    56.5531 </r>
       <r>     1.3392     4.7790    56.9643 </r>
       <r>     1.4252     4.9938    57.3941 </r>
       <r>     1.5113     9.4605    58.2082 </r>
       <r>     1.5973    12.5210    59.2857 </r>
       <r>     1.6834    10.4490    60.1849 </r>
       <r>     1.7695     5.3856    60.6484 </r>
       <r>     1.8555     0.0978    60.6568 </r>
       <r>     1.9416     0.8170    60.7271 </r>
       <r>     2.0276     1.3189    60.8406 </r>
       <r>     2.1137     0.7409    60.9044 </r>
       <r>     2.1997    10.2348    61.7852 </r>
       <r>     2.2858    18.0498    63.3385 </r>
       <r>     2.3719    15.8938    64.7062 </r>
       <r>     2.4579     1.1560    64.8057 </r>
       <r>     2.5440     6.0928    65.3300 </r>
       <r>     2.6300     6.9050    65.9243 </r>
       <r>     2.7161     4.7859    66.3361 </r>
       <r>     2.8021     7.1477    66.9512 </r>
       <r>     2.8882     4.6998    67.3557 </r>
       <r>     2.9742     0.6935    67.4154 </r>
       <r>     3.0603     4.8993    67.8370 </r>
       <r>     3.1464     6.6914    68.4128 </r>
       <r>     3.2324    13.6837    69.5904 </r>
       <r>     3.3185    11.3472    70.5669 </r>
       <r>     3.4045     1.0368    70.6561 </r>
       <r>     3.4906     0.0017    70.6562 </r>
       <r>     3.5766     0.0007    70.6563 </r>
       <r>     3.6627     0.6639    70.7134 </r>
       <r>     3.7488     6.7247    71.2921 </r>
       <r>     3.8348     2.8501    71.5374 </r>
       <r>     3.9209     0.2822    71.5617 </r>
       <r>     4.0069     0.9045    71.6395 </r>
       <r>     4.0930     3.2291    71.9174 </r>
       <r>     4.1790     0.2352    71.9377 </r>
       <r>     4.2651     0.3523    71.9680 </r>
       <r>     4.3512     0.7092    72.0290 </r>
       <r>     4.4372     0.0259    72.0312 </r>
       <r>     4.5233     0.0000    72.0312 </r>
       <r>     4.6093     0.0000    72.0312 </r>
       <r>     4.6954     0.0000    72.0312 </r>
       <r>     4.7814     0.0000    72.0312 </r>
       <r>     4.8675     0.0000    72.0313 </r>
       <r>     4.9535     0.0004    72.0313 </r>
       <r>     5.0396     0.2297    72.0511 </r>
       <r>     5.1257     1.1121    72.1468 </r>
       <r>     5.2117     0.1102    72.1562 </r>
       <r>     5.2978     0.0643    72.1618 </r>
       <r>     5.3838     1.8634    72.3221 </r>
       <r>     5.4699     0.9712    72.4057 </r>
       <r>     5.5559     0.0062    72.4063 </r>
       <r>     5.6420     0.0280    72.4087 </r>
       <r>     5.7281     0.7202    72.4706 </r>
       <r>     5.8141     0.5643    72.5192 </r>
       <r>     5.9002     3.3853    72.8105 </r>
       <r>     5.9862     4.4619    73.1945 </r>
       <r>     6.0723     6.0092    73.7116 </r>
       <r>     6.1583     4.9993    74.1419 </r>
       <r>     6.2444     7.9561    74.8265 </r>
       <r>     6.3305     4.2723    75.1942 </r>
       <r>     6.4165     2.9548    75.4485 </r>
       <r>     6.5026     7.8569    76.1246 </r>
       <r>     6.5886     2.2208    76.3157 </r>
       <r>     6.6747     3.8297    76.6453 </r>
       <r>     6.7607     3.5658    76.9522 </r>
       <r>     6.8468     5.7408    77.4462 </r>
       <r>     6.9329     9.2484    78.2421 </r>
       <r>     7.0189    14.0774    79.4535 </r>
       <r>     7.1050     3.8987    79.7890 </r>
       <r>     7.1910     1.8636    79.9494 </r>
       <r>     7.2771     6.5812    80.5158 </r>
       <r>     7.3631     6.1019    81.0409 </r>
       <r>     7.4492    10.8577    81.9753 </r>
       <r>     7.5352     4.2321    82.3395 </r>
       <r>     7.6213     0.0498    82.3437 </r>
       <r>     7.7074     0.0000    82.3437 </r>
       <r>     7.7934     0.0000    82.3438 </r>
       <r>     7.8795     0.0000    82.3438 </r>
       <r>     7.9655     0.0001    82.3438 </r>
       <r>     8.0516     0.1326    82.3552 </r>
       <r>     8.1376     3.1276    82.6243 </r>
       <r>     8.2237     7.0215    83.2286 </r>
       <r>     8.3098    12.0672    84.2670 </r>
       <r>     8.3958     6.2528    84.8051 </r>
       <r>     8.4819    10.9561    85.7480 </r>
       <r>     8.5679     5.0527    86.1828 </r>
       <r>     8.6540     5.0660    86.6187 </r>
       <r>     8.7400     3.7563    86.9420 </r>
       <r>     8.8261     5.3207    87.3999 </r>
       <r>     8.9122    14.4881    88.6467 </r>
       <r>     8.9982     1.9238    88.8122 </r>
       <r>     9.0843     0.2453    88.8333 </r>
       <r>     9.1703     5.5114    89.3076 </r>
       <r>     9.2564    17.7184    90.8324 </r>
       <r>     9.3424    13.6490    92.0070 </r>
       <r>     9.4285     3.1168    92.2752 </r>
       <r>     9.5146     3.3353    92.5622 </r>
       <r>     9.6006     2.7477    92.7987 </r>
       <r>     9.6867     6.3092    93.3417 </r>
       <r>     9.7727     0.6797    93.4002 </r>
       <r>     9.8588     6.0421    93.9201 </r>
       <r>     9.9448     2.9582    94.1747 </r>
       <r>    10.0309     8.3403    94.8924 </r>
       <r>    10.1169     5.4403    95.3606 </r>
       <r>    10.2030     0.5166    95.4051 </r>
       <r>    10.2891     1.6665    95.5485 </r>
       <r>    10.3751     0.1629    95.5625 </r>
       <r>    10.4612     0.0001    95.5625 </r>
       <r>    10.5472     0.0000    95.5625 </r>
       <r>    10.6333     0.0000    95.5625 </r>
       <r>    10.7193     0.0000    95.5625 </r>
       <r>    10.8054     0.0000    95.5625 </r>
       <r>    10.8915     0.0000    95.5625 </r>
       <r>    10.9775     0.0000    95.5625 </r>
       <r>    11.0636     0.0000    95.5625 </r>
       <r>    11.1496     0.0000    95.5625 </r>
       <r>    11.2357     0.0000    95.5625 </r>
       <r>    11.3217     0.0000    95.5625 </r>
       <r>    11.4078     0.0825    95.5696 </r>
       <r>    11.4939     2.7385    95.8053 </r>
       <r>    11.5799     1.8392    95.9635 </r>
       <r>    11.6660     0.0604    95.9687 </r>
       <r>    11.7520     0.0001    95.9687 </r>
       <r>    11.8381     0.0000    95.9688 </r>
       <r>    11.9241     0.0000    95.9688 </r>
       <r>    12.0102     0.0000    95.9688 </r>
       <r>    12.0962     0.0000    95.9688 </r>
       <r>    12.1823     0.0000    95.9688 </r>
       <r>    12.2684     0.0000    95.9688 </r>
       <r>    12.3544     0.0000    95.9688 </r>
       <r>    12.4405     0.0000    95.9688 </r>
       <r>    12.5265     0.0000    95.9688 </r>
       <r>    12.6126     0.0000    95.9688 </r>
       <r>    12.6986     0.0000    95.9688 </r>
       <r>    12.7847     0.0000    95.9688 </r>
       <r>    12.8708     0.0000    95.9688 </r>
       <r>    12.9568     0.0000    95.9688 </r>
       <r>    13.0429     0.0000    95.9688 </r>
       <r>    13.1289     0.0002    95.9688 </r>
       <r>    13.2150     0.0681    95.9746 </r>
       <r>    13.3010     0.2728    95.9981 </r>
       <r>    13.3871     0.0220    96.0000 </r>
       <r>    13.4732     0.0000    96.0000 </r>
       <r>    13.5592     0.0000    96.0000 </r>
       <r>    13.6453     0.0000    96.0000 </r>
       <r>    13.7313     0.0000    96.0000 </r>
       <r>    13.8174     0.0000    96.0000 </r>
       <r>    13.9034     0.0000    96.0000 </r>
       <r>    13.9895     0.0000    96.0000 </r>
       <r>    14.0756     0.0000    96.0000 </r>
       <r>    14.1616     0.0000    96.0000 </r>
       <r>    14.2477     0.0000    96.0000 </r>
       <r>    14.3337     0.0000    96.0000 </r>
       <r>    14.4198     0.0000    96.0000 </r>
      </set>
     </set>
    </array>
   </total>
   <partial>
    <array>
     <dimension dim="1">gridpoints</dimension>
     <dimension dim="2">spin</dimension>
     <dimension dim="3">ion</dimension>
     <field>energy</field>
     <field>  s</field>
     <field> py</field>
     <field> pz</field>
     <field> px</field>
     <field>dxy</field>
     <field>dyz</field>
     <field>dz2</field>
     <field>dxz</field>
     <field>dx2</field>
     <set>
      <set comment="ion 1">
       <set comment="spin 1">
        <r>   -11.3972     0.0000     0.0000     0.0000     0.0000     0.0000     0.0000     0.0000     0.0000     0.0000 </r>
        <r>   -11.3112     0.0000     0.0000     0.0000     0.0000     0.0000     0.0000     0.0000     0.0000     0.0000 </r>
        <r>   -11.2251     0.0000     0.0000     0.0000     0.0000     0.0000     0.0000     0.0000     0.0000     0.0000 </r>
        <r>   -11.1390     0.0000     0.0000     0.0000     0.0000     0.0000     0.0000     0.0000     0.0000     0.0000 </r>
        <r>   -11.0530     0.0000     0.0000     0.0000     0.0000     0.0000     0.0000     0.0000     0.0000     0.0000 </r>
        <r>   -10.9669     0.0000     0.0000     0.0000     0.0000     0.0000     0.0000     0.0000     0.0000     0.0000 </r>
        <r>   -10.8809     0.0000     0.0000     0.0000     0.0000     0.0000     0.0000     0.0000     0.0000     0.0000 </r>
        <r>   -10.7948     0.0000     0.0000     0.0000     0.0000     0.0000     0.0000     0.0000     0.0000     0.0000 </r>
        <r>   -10.7088     0.0000     0.0000     0.0000     0.0000     0.0000     0.0000     0.0000     0.0000     0.0000 </r>
        <r>   -10.6227     0.0000     0.0000     0.0000     0.0000     0.0000     0.0000     0.0000     0.0000     0.0000 </r>
        <r>   -10.5366     0.0000     0.0000     0.0000     0.0000     0.0000     0.0000     0.0000     0.0000     0.0000 </r>
        <r>   -10.4506     0.0000     0.0000     0.0000     0.0000     0.0000     0.0000     0.0000     0.0000     0.0000 </r>
        <r>   -10.3645     0.0000     0.0000     0.0000     0.0000     0.0000     0.0000     0.0000     0.0000     0.0000 </r>
        <r>   -10.2785     0.0000     0.0001     0.0001     0.0000     0.0506     0.0266     0.0000     0.0445     0.0000 </r>
        <r>   -10.1924     0.0034     0.0039     0.0044     0.0026     2.4602     1.8221     0.0029     2.3555     0.0010 </r>
        <r>   -10.1064     0.0107     0.0052     0.0059     0.0056     3.5213     5.0361     0.0081     3.6231     0.0039 </r>
        <r>   -10.0203     0.0027     0.0010     0.0010     0.0013     4.3354     3.8832     0.3151     4.3375     0.2164 </r>
        <r>    -9.9342     0.0008     0.0017     0.0014     0.0018    10.4854     9.5714     6.1943    10.5009     6.1976 </r>
        <r>    -9.8482     0.0005     0.0002     0.0002     0.0003     1.3182     1.8268    15.0453     1.3258    15.2157 </r>
        <r>    -9.7621     0.0000     0.0000     0.0000     0.0000     0.0380     0.0313     1.1500     0.0262     1.0837 </r>
        <r>    -9.6761     0.0000     0.0000     0.0000     0.0000     0.0000     0.0000     0.0008     0.0000     0.0007 </r>
        <r>    -9.5900     0.0000     0.0000     0.0000     0.0000     0.0000     0.0000     0.0000     0.0000     0.0000 </r>
        <r>    -9.5040     0.0000     0.0000     0.0000     0.0000     0.0000     0.0000     0.0000     0.0000     0.0000 </r>
        <r>    -9.4179     0.0000     0.0000     0.0000     0.0000     0.0000     0.0000     0.0000     0.0000     0.0000 </r>
        <r>    -9.3318     0.0000     0.0000     0.0000     0.0000     0.0000     0.0000     0.0000     0.0000     0.0000 </r>
        <r>    -9.2458     0.0000     0.0000     0.0000     0.0000     0.0000     0.0000     0.0000     0.0000     0.0000 </r>
        <r>    -9.1597     0.0000     0.0000     0.0000     0.0000     0.0000     0.0000     0.0000     0.0000     0.0000 </r>
        <r>    -9.0737     0.0000     0.0000     0.0000     0.0000     0.0000     0.0000     0.0000     0.0000     0.0000 </r>
        <r>    -8.9876     0.0000     0.0000     0.0000     0.0000     0.0000     0.0000     0.0000     0.0000     0.0000 </r>
        <r>    -8.9016     0.0000     0.0000     0.0000     0.0000     0.0000     0.0000     0.0000     0.0000     0.0000 </r>
        <r>    -8.8155     0.0000     0.0000     0.0000     0.0000     0.0000     0.0000     0.0000     0.0000     0.0000 </r>
        <r>    -8.7295     0.0000     0.0000     0.0000     0.0000     0.0000     0.0000     0.0000     0.0000     0.0000 </r>
        <r>    -8.6434     0.0000     0.0000     0.0000     0.0000     0.0000     0.0000     0.0000     0.0000     0.0000 </r>
        <r>    -8.5573     0.0000     0.0000     0.0000     0.0000     0.0000     0.0000     0.0000     0.0000     0.0000 </r>
        <r>    -8.4713     0.0000     0.0000     0.0000     0.0000     0.0000     0.0000     0.0000     0.0000     0.0000 </r>
        <r>    -8.3852     0.0000     0.0000     0.0000     0.0000     0.0000     0.0000     0.0000     0.0000     0.0000 </r>
        <r>    -8.2992     0.0000     0.0000     0.0000     0.0000     0.0000     0.0000     0.0000     0.0000     0.0000 </r>
        <r>    -8.2131     0.0000     0.0000     0.0000     0.0000     0.0000     0.0000     0.0000     0.0000     0.0000 </r>
        <r>    -8.1271     0.0000     0.0000     0.0000     0.0000     0.0000     0.0000     0.0000     0.0000     0.0000 </r>
        <r>    -8.0410     0.0000     0.0000     0.0000     0.0000     0.0000     0.0000     0.0000     0.0000     0.0000 </r>
        <r>    -7.9549     0.0000     0.0000     0.0000     0.0000     0.0000     0.0000     0.0000     0.0000     0.0000 </r>
        <r>    -7.8689     0.0000     0.0000     0.0000     0.0000     0.0000     0.0000     0.0000     0.0000     0.0000 </r>
        <r>    -7.7828     0.0000     0.0000     0.0000     0.0000     0.0000     0.0000     0.0000     0.0000     0.0000 </r>
        <r>    -7.6968     0.0000     0.0000     0.0000     0.0000     0.0000     0.0000     0.0000     0.0000     0.0000 </r>
        <r>    -7.6107     0.0052     0.0000     0.0000     0.0000     0.0000     0.0000     0.0000     0.0000     0.0000 </r>
        <r>    -7.5247     0.0089     0.0000     0.0000     0.0000     0.0000     0.0000     0.0000     0.0000     0.0000 </r>
        <r>    -7.4386     0.0051     0.0000     0.0000     0.0001     0.0000     0.0004     0.0000     0.0000     0.0000 </r>
        <r>    -7.3525     0.0606     0.0000     0.0000     0.0016     0.0000     0.0056     0.0000     0.0000     0.0000 </r>
        <r>    -7.2665     0.0166     0.0000     0.0000     0.0005     0.0000     0.0015     0.0000     0.0001     0.0000 </r>
        <r>    -7.1804     0.0763     0.0021     0.0002     0.0021     0.0015     0.0061     0.0000     0.0061     0.0000 </r>
        <r>    -7.0944     0.0726     0.0020     0.0002     0.0020     0.0014     0.0058     0.0000     0.0058     0.0000 </r>
        <r>    -7.0083     0.0342     0.0010     0.0010     0.0010     0.0030     0.0030     0.0000     0.0030     0.0000 </r>
        <r>    -6.9223     0.0582     0.0017     0.0017     0.0017     0.0051     0.0051     0.0000     0.0051     0.0000 </r>
        <r>    -6.8362     0.0103     0.0001     0.0001     0.0012     0.0002     0.0030     0.0000     0.0002     0.0000 </r>
        <r>    -6.7502     0.0493     0.0000     0.0000     0.0068     0.0000     0.0164     0.0000     0.0000     0.0001 </r>
        <r>    -6.6641     0.0533     0.0012     0.0006     0.0073     0.0033     0.0165     0.0001     0.0027     0.0001 </r>
        <r>    -6.5780     0.1758     0.0046     0.0024     0.0240     0.0123     0.0541     0.0002     0.0101     0.0002 </r>
        <r>    -6.4920     0.1357     0.0052     0.0050     0.0185     0.0154     0.0412     0.0001     0.0153     0.0001 </r>
        <r>    -6.4059     0.0863     0.0034     0.0034     0.0118     0.0102     0.0262     0.0000     0.0102     0.0001 </r>
        <r>    -6.3199     0.0010     0.0001     0.0000     0.0001     0.0001     0.0003     0.0000     0.0001     0.0000 </r>
        <r>    -6.2338     0.0345     0.0046     0.0032     0.0046     0.0104     0.0092     0.0000     0.0092     0.0000 </r>
        <r>    -6.1478     0.1782     0.0240     0.0184     0.0240     0.0555     0.0512     0.0001     0.0512     0.0000 </r>
        <r>    -6.0617     0.0571     0.0071     0.0061     0.0104     0.0168     0.0219     0.0000     0.0161     0.0000 </r>
        <r>    -5.9756     0.0427     0.0063     0.0021     0.0208     0.0053     0.0366     0.0001     0.0112     0.0002 </r>
        <r>    -5.8896     0.1694     0.0518     0.0318     0.0477     0.0695     0.0882     0.0003     0.0974     0.0005 </r>
        <r>    -5.8035     0.1092     0.0371     0.0347     0.0203     0.0728     0.0402     0.0002     0.0753     0.0001 </r>
        <r>    -5.7175     0.0517     0.0329     0.0287     0.0067     0.0622     0.0116     0.0001     0.0595     0.0000 </r>
        <r>    -5.6314     0.0127     0.0101     0.0172     0.0036     0.0320     0.0064     0.0000     0.0179     0.0000 </r>
        <r>    -5.5454     0.0063     0.0318     0.0530     0.0078     0.0892     0.0136     0.0000     0.0537     0.0000 </r>
        <r>    -5.4593     0.0003     0.0143     0.0154     0.0006     0.0261     0.0010     0.0000     0.0243     0.0000 </r>
        <r>    -5.3732     0.0000     0.0002     0.0002     0.0000     0.0003     0.0000     0.0000     0.0003     0.0000 </r>
        <r>    -5.2872     0.0000     0.0000     0.0000     0.0000     0.0000     0.0000     0.0000     0.0000     0.0000 </r>
        <r>    -5.2011     0.0000     0.0000     0.0000     0.0000     0.0000     0.0000     0.0000     0.0000     0.0000 </r>
        <r>    -5.1151     0.0000     0.0000     0.0000     0.0000     0.0000     0.0000     0.0000     0.0000     0.0000 </r>
        <r>    -5.0290     0.0000     0.0000     0.0000     0.0000     0.0000     0.0000     0.0000     0.0000     0.0000 </r>
        <r>    -4.9430     0.0000     0.0000     0.0000     0.0000     0.0000     0.0000     0.0000     0.0000     0.0000 </r>
        <r>    -4.8569     0.0000     0.0000     0.0000     0.0000     0.0000     0.0000     0.0000     0.0000     0.0000 </r>
        <r>    -4.7708     0.0000     0.0000     0.0000     0.0000     0.0000     0.0000     0.0000     0.0000     0.0000 </r>
        <r>    -4.6848     0.0000     0.0000     0.0000     0.0000     0.0000     0.0000     0.0000     0.0000     0.0000 </r>
        <r>    -4.5987     0.0000     0.0000     0.0000     0.0000     0.0000     0.0000     0.0000     0.0000     0.0000 </r>
        <r>    -4.5127     0.0000     0.0000     0.0000     0.0000     0.0000     0.0000     0.0000     0.0000     0.0000 </r>
        <r>    -4.4266     0.0000     0.0000     0.0000     0.0000     0.0000     0.0000     0.0000     0.0000     0.0000 </r>
        <r>    -4.3406     0.0000     0.0000     0.0000     0.0000     0.0000     0.0000     0.0000     0.0000     0.0000 </r>
        <r>    -4.2545     0.0000     0.0000     0.0000     0.0000     0.0000     0.0000     0.0000     0.0000     0.0000 </r>
        <r>    -4.1685     0.0000     0.0000     0.0000     0.0000     0.0000     0.0000     0.0000     0.0000     0.0000 </r>
        <r>    -4.0824     0.0000     0.0000     0.0000     0.0000     0.0000     0.0000     0.0000     0.0000     0.0000 </r>
        <r>    -3.9963     0.0000     0.0000     0.0000     0.0000     0.0000     0.0000     0.0000     0.0000     0.0000 </r>
        <r>    -3.9103     0.0000     0.0000     0.0000     0.0000     0.0000     0.0000     0.0000     0.0000     0.0000 </r>
        <r>    -3.8242     0.0000     0.0000     0.0000     0.0000     0.0000     0.0000     0.0000     0.0000     0.0000 </r>
        <r>    -3.7382     0.0000     0.0000     0.0000     0.0000     0.0000     0.0000     0.0000     0.0000     0.0000 </r>
        <r>    -3.6521     0.0000     0.0000     0.0000     0.0000     0.0000     0.0000     0.0000     0.0000     0.0000 </r>
        <r>    -3.5661     0.0000     0.0000     0.0000     0.0000     0.0000     0.0000     0.0000     0.0000     0.0000 </r>
        <r>    -3.4800     0.0000     0.0000     0.0000     0.0000     0.0000     0.0000     0.0000     0.0000     0.0000 </r>
        <r>    -3.3939     0.0000     0.0000     0.0000     0.0000     0.0000     0.0000     0.0000     0.0000     0.0000 </r>
        <r>    -3.3079     0.0000     0.0000     0.0000     0.0000     0.0000     0.0000     0.0000     0.0000     0.0000 </r>
        <r>    -3.2218     0.0000     0.0000     0.0000     0.0000     0.0000     0.0000     0.0000     0.0000     0.0000 </r>
        <r>    -3.1358     0.0000     0.0000     0.0000     0.0000     0.0000     0.0000     0.0000     0.0000     0.0000 </r>
        <r>    -3.0497     0.0000     0.0000     0.0000     0.0000     0.0000     0.0000     0.0000     0.0000     0.0000 </r>
        <r>    -2.9637     0.0000     0.0000     0.0000     0.0000     0.0000     0.0000     0.0000     0.0000     0.0000 </r>
        <r>    -2.8776     0.0000     0.0000     0.0000     0.0000     0.0000     0.0000     0.0000     0.0000     0.0000 </r>
        <r>    -2.7915     0.0000     0.0000     0.0000     0.0000     0.0000     0.0000     0.0000     0.0000     0.0000 </r>
        <r>    -2.7055     0.0000     0.0000     0.0000     0.0000     0.0000     0.0000     0.0000     0.0000     0.0000 </r>
        <r>    -2.6194     0.0000     0.0000     0.0000     0.0000     0.0000     0.0000     0.0000     0.0000     0.0000 </r>
        <r>    -2.5334     0.0000     0.0000     0.0000     0.0000     0.0000     0.0000     0.0000     0.0000     0.0000 </r>
        <r>    -2.4473     0.0000     0.0000     0.0000     0.0000     0.0000     0.0000     0.0000     0.0000     0.0000 </r>
        <r>    -2.3613     0.0000     0.0000     0.0000     0.0000     0.0000     0.0000     0.0000     0.0000     0.0000 </r>
        <r>    -2.2752     0.0000     0.0000     0.0000     0.0000     0.0000     0.0000     0.0000     0.0000     0.0000 </r>
        <r>    -2.1891     0.0000     0.0000     0.0000     0.0000     0.0000     0.0000     0.0000     0.0000     0.0000 </r>
        <r>    -2.1031     0.0000     0.0000     0.0000     0.0000     0.0000     0.0000     0.0000     0.0000     0.0000 </r>
        <r>    -2.0170     0.0000     0.0000     0.0000     0.0000     0.0000     0.0000     0.0000     0.0000     0.0000 </r>
        <r>    -1.9310     0.0000     0.0000     0.0000     0.0000     0.0000     0.0000     0.0000     0.0000     0.0000 </r>
        <r>    -1.8449     0.0000     0.0000     0.0000     0.0000     0.0000     0.0000     0.0000     0.0000     0.0000 </r>
        <r>    -1.7589     0.0000     0.0000     0.0000     0.0000     0.0000     0.0000     0.0000     0.0000     0.0000 </r>
        <r>    -1.6728     0.0059     0.0000     0.0000     0.0000     0.0000     0.0000     0.0000     0.0000     0.0000 </r>
        <r>    -1.5868     0.1630     0.0004     0.0004     0.0004     0.0000     0.0000     0.0011     0.0000     0.0010 </r>
        <r>    -1.5007     0.6849     0.0052     0.0067     0.0053     0.0000     0.0001     0.0032     0.0001     0.0020 </r>
        <r>    -1.4146     0.8066     0.0094     0.0130     0.0071     0.0005     0.0002     0.0024     0.0007     0.0008 </r>
        <r>    -1.3286     0.7101     0.0190     0.0238     0.0134     0.0013     0.0004     0.0005     0.0022     0.0006 </r>
        <r>    -1.2425     1.0840     0.0130     0.0368     0.0114     0.0024     0.0031     0.0009     0.0068     0.0015 </r>
        <r>    -1.1565     1.0730     0.0355     0.0538     0.0353     0.0036     0.0067     0.0014     0.0070     0.0012 </r>
        <r>    -1.0704     0.3599     0.0058     0.0114     0.0058     0.0006     0.0039     0.0004     0.0039     0.0019 </r>
        <r>    -0.9844     0.5699     0.0048     0.0117     0.0057     0.0007     0.0072     0.0008     0.0064     0.0040 </r>
        <r>    -0.8983     0.1784     0.0002     0.0004     0.0055     0.0000     0.0053     0.0006     0.0002     0.0019 </r>
        <r>    -0.8122     0.0323     0.0001     0.0012     0.0007     0.0000     0.0008     0.0001     0.0002     0.0002 </r>
        <r>    -0.7262     0.2539     0.0021     0.0231     0.0021     0.0007     0.0046     0.0000     0.0046     0.0000 </r>
        <r>    -0.6401     0.0937     0.0008     0.0085     0.0008     0.0003     0.0017     0.0000     0.0017     0.0000 </r>
        <r>    -0.5541     0.1165     0.0083     0.0083     0.0058     0.0011     0.0040     0.0000     0.0011     0.0001 </r>
        <r>    -0.4680     0.4430     0.0316     0.0316     0.0221     0.0043     0.0154     0.0002     0.0043     0.0005 </r>
        <r>    -0.3820     0.0339     0.0024     0.0024     0.0017     0.0003     0.0012     0.0000     0.0003     0.0000 </r>
        <r>    -0.2959     0.0000     0.0000     0.0000     0.0000     0.0000     0.0000     0.0000     0.0000     0.0000 </r>
        <r>    -0.2098     0.0000     0.0000     0.0000     0.0000     0.0000     0.0000     0.0000     0.0000     0.0000 </r>
        <r>    -0.1238     0.0000     0.0000     0.0000     0.0000     0.0000     0.0000     0.0000     0.0000     0.0000 </r>
        <r>    -0.0377     0.0177     0.0002     0.0014     0.0008     0.0000     0.0010     0.0000     0.0003     0.0000 </r>
        <r>     0.0483     0.4262     0.0040     0.0326     0.0188     0.0008     0.0247     0.0004     0.0062     0.0012 </r>
        <r>     0.1344     0.1902     0.0018     0.0145     0.0084     0.0004     0.0110     0.0002     0.0028     0.0005 </r>
        <r>     0.2204     0.0010     0.0000     0.0001     0.0000     0.0000     0.0001     0.0000     0.0000     0.0000 </r>
        <r>     0.3065     0.0000     0.0000     0.0000     0.0000     0.0000     0.0000     0.0000     0.0000     0.0000 </r>
        <r>     0.3925     0.0001     0.0000     0.0000     0.0000     0.0000     0.0000     0.0000     0.0000     0.0000 </r>
        <r>     0.4786     0.0540     0.0019     0.0019     0.0048     0.0007     0.0036     0.0001     0.0007     0.0003 </r>
        <r>     0.5647     0.2467     0.0114     0.0114     0.0220     0.0043     0.0148     0.0003     0.0043     0.0010 </r>
        <r>     0.6507     0.0245     0.0014     0.0014     0.0022     0.0005     0.0013     0.0000     0.0005     0.0001 </r>
        <r>     0.7368     0.0000     0.0000     0.0000     0.0000     0.0000     0.0000     0.0000     0.0000     0.0000 </r>
        <r>     0.8228     0.0000     0.0000     0.0000     0.0000     0.0000     0.0000     0.0000     0.0000     0.0000 </r>
        <r>     0.9089     0.0000     0.0005     0.0004     0.0005     0.0000     0.0000     0.0001     0.0000     0.0000 </r>
        <r>     0.9949     0.0015     0.0400     0.0302     0.0438     0.0007     0.0005     0.0050     0.0004     0.0001 </r>
        <r>     1.0810     0.0159     0.1020     0.1074     0.1436     0.0052     0.0012     0.0156     0.0004     0.0006 </r>
        <r>     1.1671     0.0035     0.0158     0.0193     0.0251     0.0011     0.0002     0.0027     0.0000     0.0001 </r>
        <r>     1.2531     0.0107     0.0006     0.0011     0.0032     0.0000     0.0007     0.0002     0.0006     0.0001 </r>
        <r>     1.3392     0.1835     0.0125     0.0218     0.0638     0.0002     0.0133     0.0044     0.0111     0.0014 </r>
        <r>     1.4252     0.0720     0.0640     0.0672     0.0467     0.0040     0.0046     0.0040     0.0040     0.0006 </r>
        <r>     1.5113     0.0776     0.1224     0.1226     0.1130     0.0115     0.0020     0.0101     0.0057     0.0045 </r>
        <r>     1.5973     0.1023     0.1423     0.1424     0.1868     0.0097     0.0057     0.0131     0.0094     0.0083 </r>
        <r>     1.6834     0.0183     0.1328     0.1421     0.1689     0.0093     0.0052     0.0078     0.0025     0.0022 </r>
        <r>     1.7695     0.0148     0.0744     0.0857     0.0652     0.0090     0.0007     0.0038     0.0008     0.0006 </r>
        <r>     1.8555     0.0003     0.0013     0.0015     0.0013     0.0002     0.0000     0.0001     0.0000     0.0000 </r>
        <r>     1.9416     0.0000     0.0123     0.0123     0.0123     0.0005     0.0005     0.0000     0.0005     0.0000 </r>
        <r>     2.0276     0.0000     0.0199     0.0199     0.0199     0.0008     0.0008     0.0000     0.0008     0.0000 </r>
        <r>     2.1137     0.0004     0.0098     0.0138     0.0081     0.0002     0.0008     0.0003     0.0009     0.0004 </r>
        <r>     2.1997     0.0397     0.1439     0.1865     0.0871     0.0057     0.0129     0.0034     0.0127     0.0046 </r>
        <r>     2.2858     0.1858     0.2474     0.2415     0.1668     0.0413     0.0215     0.0112     0.0098     0.0043 </r>
        <r>     2.3719     0.0658     0.2535     0.1367     0.2453     0.0207     0.0189     0.0091     0.0113     0.0105 </r>
        <r>     2.4579     0.0008     0.0204     0.0073     0.0214     0.0005     0.0016     0.0004     0.0012     0.0009 </r>
        <r>     2.5440     0.0000     0.0862     0.0862     0.0871     0.0069     0.0071     0.0024     0.0069     0.0023 </r>
        <r>     2.6300     0.0012     0.0787     0.0787     0.1302     0.0048     0.0143     0.0050     0.0048     0.0040 </r>
        <r>     2.7161     0.0095     0.0463     0.0463     0.0989     0.0027     0.0125     0.0039     0.0027     0.0035 </r>
        <r>     2.8021     0.0811     0.0635     0.0635     0.1135     0.0092     0.0189     0.0023     0.0092     0.0069 </r>
        <r>     2.8882     0.0161     0.0774     0.0774     0.0223     0.0122     0.0037     0.0005     0.0122     0.0014 </r>
        <r>     2.9742     0.0000     0.0136     0.0136     0.0000     0.0022     0.0000     0.0001     0.0022     0.0000 </r>
        <r>     3.0603     0.0000     0.0946     0.0946     0.0001     0.0149     0.0000     0.0024     0.0148     0.0008 </r>
        <r>     3.1464     0.0072     0.1146     0.1078     0.0270     0.0206     0.0029     0.0023     0.0199     0.0025 </r>
        <r>     3.2324     0.0221     0.2200     0.1169     0.1601     0.0248     0.0212     0.0017     0.0422     0.0139 </r>
        <r>     3.3185     0.0014     0.1979     0.0343     0.1937     0.0054     0.0284     0.0015     0.0299     0.0164 </r>
        <r>     3.4045     0.0000     0.0159     0.0071     0.0159     0.0011     0.0024     0.0004     0.0024     0.0011 </r>
        <r>     3.4906     0.0000     0.0000     0.0000     0.0000     0.0000     0.0000     0.0000     0.0000     0.0000 </r>
        <r>     3.5766     0.0000     0.0000     0.0000     0.0000     0.0000     0.0000     0.0000     0.0000     0.0000 </r>
        <r>     3.6627     0.0000     0.0071     0.0071     0.0065     0.0022     0.0020     0.0002     0.0022     0.0002 </r>
        <r>     3.7488     0.0000     0.0794     0.0794     0.0469     0.0266     0.0142     0.0017     0.0266     0.0017 </r>
        <r>     3.8348     0.0094     0.0375     0.0375     0.0070     0.0138     0.0021     0.0003     0.0138     0.0003 </r>
        <r>     3.9209     0.0232     0.0005     0.0004     0.0000     0.0002     0.0000     0.0000     0.0002     0.0000 </r>
        <r>     4.0069     0.0011     0.0114     0.0000     0.0114     0.0000     0.0051     0.0000     0.0051     0.0009 </r>
        <r>     4.0930     0.0000     0.0414     0.0000     0.0414     0.0000     0.0183     0.0000     0.0183     0.0033 </r>
        <r>     4.1790     0.0000     0.0030     0.0000     0.0030     0.0000     0.0013     0.0000     0.0013     0.0002 </r>
        <r>     4.2651     0.0000     0.0022     0.0022     0.0022     0.0018     0.0018     0.0000     0.0018     0.0000 </r>
        <r>     4.3512     0.0000     0.0044     0.0044     0.0044     0.0035     0.0035     0.0000     0.0035     0.0000 </r>
        <r>     4.4372     0.0000     0.0002     0.0002     0.0002     0.0001     0.0001     0.0000     0.0001     0.0000 </r>
        <r>     4.5233     0.0000     0.0000     0.0000     0.0000     0.0000     0.0000     0.0000     0.0000     0.0000 </r>
        <r>     4.6093     0.0000     0.0000     0.0000     0.0000     0.0000     0.0000     0.0000     0.0000     0.0000 </r>
        <r>     4.6954     0.0000     0.0000     0.0000     0.0000     0.0000     0.0000     0.0000     0.0000     0.0000 </r>
        <r>     4.7814     0.0000     0.0000     0.0000     0.0000     0.0000     0.0000     0.0000     0.0000     0.0000 </r>
        <r>     4.8675     0.0000     0.0000     0.0000     0.0000     0.0000     0.0000     0.0000     0.0000     0.0000 </r>
        <r>     4.9535     0.0000     0.0000     0.0000     0.0000     0.0000     0.0000     0.0000     0.0000     0.0000 </r>
        <r>     5.0396     0.0150     0.0013     0.0013     0.0013     0.0002     0.0002     0.0000     0.0002     0.0000 </r>
        <r>     5.1257     0.0727     0.0061     0.0061     0.0061     0.0012     0.0012     0.0000     0.0012     0.0000 </r>
        <r>     5.2117     0.0072     0.0006     0.0006     0.0006     0.0001     0.0001     0.0000     0.0001     0.0000 </r>
        <r>     5.2978     0.0036     0.0005     0.0005     0.0005     0.0000     0.0000     0.0000     0.0000     0.0000 </r>
        <r>     5.3838     0.1038     0.0152     0.0152     0.0152     0.0007     0.0007     0.0000     0.0007     0.0000 </r>
        <r>     5.4699     0.0541     0.0079     0.0079     0.0079     0.0004     0.0004     0.0000     0.0004     0.0000 </r>
        <r>     5.5559     0.0003     0.0001     0.0001     0.0001     0.0000     0.0000     0.0000     0.0000     0.0000 </r>
        <r>     5.6420     0.0000     0.0004     0.0004     0.0004     0.0001     0.0001     0.0000     0.0001     0.0000 </r>
        <r>     5.7281     0.0000     0.0097     0.0097     0.0097     0.0025     0.0025     0.0000     0.0025     0.0000 </r>
        <r>     5.8141     0.0041     0.0046     0.0046     0.0119     0.0012     0.0027     0.0000     0.0012     0.0001 </r>
        <r>     5.9002     0.0870     0.0007     0.0053     0.0830     0.0001     0.0199     0.0006     0.0002     0.0019 </r>
        <r>     5.9862     0.1851     0.0080     0.0642     0.0290     0.0013     0.0087     0.0003     0.0028     0.0006 </r>
        <r>     6.0723     0.2937     0.0142     0.1090     0.0144     0.0111     0.0044     0.0015     0.0044     0.0000 </r>
        <r>     6.1583     0.2392     0.0142     0.0665     0.0320     0.0083     0.0048     0.0015     0.0037     0.0016 </r>
        <r>     6.2444     0.3424     0.0248     0.0444     0.0951     0.0098     0.0096     0.0089     0.0055     0.0094 </r>
        <r>     6.3305     0.1234     0.0020     0.0851     0.0078     0.0191     0.0011     0.0170     0.0007     0.0030 </r>
        <r>     6.4165     0.0775     0.0175     0.0248     0.0481     0.0047     0.0060     0.0054     0.0031     0.0044 </r>
[...]
        <r>  0.0163  0.0008  0.0003  0.0060  0.0008  0.0149  0.0000  0.0019  0.0000 </r>
        <r>  0.0433  0.0003  0.0008  0.0022  0.0019  0.0056  0.0000  0.0008  0.0000 </r>
        <r>  0.0461  0.0001  0.0002  0.0000  0.0001  0.0000  0.0000  0.0001  0.0000 </r>
        <r>  0.0054  0.0002  0.0001  0.0000  0.0001  0.0000  0.0000  0.0001  0.0000 </r>
        <r>  0.1656  0.0000  0.0000  0.0002  0.0000  0.0001  0.0000  0.0000  0.0000 </r>
        <r>  0.2999  0.0000  0.0000  0.0001  0.0000  0.0001  0.0000  0.0000  0.0000 </r>
       </set>
       <set comment="band 25">
        <r>  0.0845  0.0018  0.0014  0.0102  0.0000  0.0000  0.0000  0.0000  0.0000 </r>
        <r>  0.1541  0.0014  0.0018  0.0056  0.0000  0.0000  0.0000  0.0000  0.0000 </r>
        <r>  0.0273  0.0056  0.0102  0.0014  0.0000  0.0000  0.0000  0.0000  0.0000 </r>
        <r>  0.0210  0.0102  0.0056  0.0018  0.0000  0.0000  0.0000  0.0000  0.0000 </r>
        <r>  0.0032  0.0208  0.0124  0.0108  0.0001  0.0001  0.0000  0.0002  0.0000 </r>
        <r>  0.0048  0.0124  0.0208  0.0072  0.0002  0.0001  0.0000  0.0001  0.0000 </r>
        <r>  0.0093  0.0072  0.0108  0.0124  0.0001  0.0001  0.0000  0.0001  0.0000 </r>
        <r>  0.0056  0.0108  0.0072  0.0208  0.0001  0.0002  0.0000  0.0001  0.0000 </r>
       </set>
       <set comment="band 26">
        <r>  0.1752  0.0006  0.0002  0.0066  0.0000  0.0000  0.0000  0.0000  0.0000 </r>
        <r>  0.0995  0.0002  0.0006  0.0116  0.0000  0.0000  0.0000  0.0000  0.0000 </r>
        <r>  0.0090  0.0116  0.0066  0.0002  0.0000  0.0000  0.0000  0.0000  0.0000 </r>
        <r>  0.0033  0.0066  0.0116  0.0006  0.0000  0.0000  0.0000  0.0000  0.0000 </r>
        <r>  0.0056  0.0081  0.0124  0.0182  0.0001  0.0002  0.0000  0.0001  0.0000 </r>
        <r>  0.0081  0.0124  0.0081  0.0125  0.0001  0.0001  0.0000  0.0001  0.0000 </r>
        <r>  0.0036  0.0125  0.0182  0.0124  0.0002  0.0001  0.0000  0.0001  0.0000 </r>
        <r>  0.0055  0.0182  0.0125  0.0081  0.0001  0.0001  0.0000  0.0002  0.0000 </r>
       </set>
       <set comment="band 27">
        <r>  0.0044  0.0073  0.0113  0.0002  0.0000  0.0000  0.0000  0.0000  0.0000 </r>
        <r>  0.0037  0.0113  0.0073  0.0003  0.0000  0.0000  0.0000  0.0000  0.0000 </r>
        <r>  0.1092  0.0003  0.0002  0.0113  0.0000  0.0000  0.0000  0.0000  0.0000 </r>
        <r>  0.1697  0.0002  0.0003  0.0073  0.0000  0.0000  0.0000  0.0000  0.0000 </r>
        <r>  0.0096  0.0062  0.0061  0.0176  0.0001  0.0002  0.0000  0.0001  0.0000 </r>
        <r>  0.0079  0.0061  0.0062  0.0214  0.0001  0.0002  0.0000  0.0001  0.0000 </r>
        <r>  0.0028  0.0214  0.0176  0.0061  0.0002  0.0001  0.0000  0.0002  0.0000 </r>
        <r>  0.0027  0.0176  0.0214  0.0062  0.0002  0.0001  0.0000  0.0002  0.0000 </r>
       </set>
       <set comment="band 28">
        <r>  0.0229  0.0094  0.0062  0.0020  0.0000  0.0000  0.0000  0.0000  0.0000 </r>
        <r>  0.0297  0.0062  0.0094  0.0015  0.0000  0.0000  0.0000  0.0000  0.0000 </r>
        <r>  0.1414  0.0015  0.0020  0.0062  0.0000  0.0000  0.0000  0.0000  0.0000 </r>
        <r>  0.0929  0.0020  0.0015  0.0094  0.0000  0.0000  0.0000  0.0000  0.0000 </r>
        <r>  0.0046  0.0161  0.0204  0.0046  0.0002  0.0001  0.0000  0.0002  0.0000 </r>
        <r>  0.0021  0.0204  0.0161  0.0102  0.0002  0.0001  0.0000  0.0002  0.0000 </r>
        <r>  0.0072  0.0102  0.0046  0.0204  0.0001  0.0002  0.0000  0.0001  0.0000 </r>
        <r>  0.0091  0.0046  0.0102  0.0161  0.0001  0.0002  0.0000  0.0001  0.0000 </r>
       </set>
       <set comment="band 29">
        <r>  0.0000  0.0066  0.0036  0.0047  0.0006  0.0007  0.0029  0.0010  0.0002 </r>
        <r>  0.0000  0.0064  0.0155  0.0267  0.0024  0.0041  0.0006  0.0010  0.0000 </r>
        <r>  0.0000  0.0052  0.0117  0.0125  0.0018  0.0019  0.0008  0.0008  0.0000 </r>
        <r>  0.0000  0.0016  0.0539  0.0019  0.0083  0.0003  0.0002  0.0002  0.0006 </r>
        <r>  0.0000  0.0052  0.1017  0.0055  0.0005  0.0000  0.0001  0.0000  0.0000 </r>
        <r>  0.0000  0.0080  0.0174  0.0400  0.0001  0.0002  0.0001  0.0000  0.0000 </r>
        <r>  0.0000  0.0080  0.0571  0.0635  0.0003  0.0003  0.0000  0.0000  0.0000 </r>
        <r>  0.0000  0.0282  0.0355  0.0056  0.0002  0.0000  0.0003  0.0001  0.0000 </r>
       </set>
       <set comment="band 30">
        <r>  0.0000  0.0178  0.0156  0.0104  0.0024  0.0016  0.0001  0.0027  0.0010 </r>
        <r>  0.0000  0.0058  0.0011  0.0100  0.0002  0.0015  0.0011  0.0009  0.0001 </r>
        <r>  0.0000  0.0198  0.0211  0.0335  0.0033  0.0052  0.0001  0.0031  0.0010 </r>
        <r>  0.0000  0.0025  0.0017  0.0109  0.0003  0.0017  0.0008  0.0004  0.0011 </r>
        <r>  0.0000  0.0090  0.0170  0.0129  0.0001  0.0001  0.0000  0.0000  0.0001 </r>
        <r>  0.0000  0.0399  0.0076  0.0131  0.0000  0.0001  0.0001  0.0002  0.0000 </r>
        <r>  0.0000  0.0344  0.0571  0.1072  0.0003  0.0005  0.0000  0.0002  0.0001 </r>
        <r>  0.0000  0.0315  0.0171  0.0292  0.0001  0.0001  0.0000  0.0002  0.0002 </r>
       </set>
       <set comment="band 31">
        <r>  0.0000  0.0076  0.0030  0.0066  0.0005  0.0010  0.0001  0.0012  0.0013 </r>
        <r>  0.0000  0.0080  0.0150  0.0190  0.0023  0.0029  0.0011  0.0012  0.0007 </r>
        <r>  0.0000  0.0184  0.0212  0.0057  0.0033  0.0009  0.0008  0.0028  0.0007 </r>
        <r>  0.0000  0.0248  0.0015  0.0195  0.0002  0.0030  0.0002  0.0038  0.0004 </r>
        <r>  0.0000  0.0210  0.0355  0.0968  0.0002  0.0005  0.0000  0.0001  0.0000 </r>
        <r>  0.0000  0.1105  0.0176  0.0006  0.0001  0.0000  0.0001  0.0005  0.0001 </r>
        <r>  0.0000  0.0030  0.0448  0.0266  0.0002  0.0001  0.0000  0.0000  0.0000 </r>
        <r>  0.0000  0.0125  0.0038  0.0032  0.0000  0.0000  0.0001  0.0001  0.0002 </r>
       </set>
       <set comment="band 32">
        <r>  0.0000  0.0365  0.0050  0.0028  0.0008  0.0004  0.0007  0.0056  0.0012 </r>
        <r>  0.0000  0.0078  0.0176  0.0067  0.0027  0.0010  0.0006  0.0012  0.0002 </r>
        <r>  0.0000  0.0354  0.0112  0.0023  0.0017  0.0004  0.0009  0.0055  0.0011 </r>
        <r>  0.0000  0.0075  0.0140  0.0035  0.0022  0.0005  0.0003  0.0012  0.0003 </r>
        <r>  0.0000  0.0472  0.0046  0.0157  0.0000  0.0001  0.0002  0.0002  0.0001 </r>
        <r>  0.0000  0.0091  0.0067  0.0016  0.0000  0.0000  0.0001  0.0000  0.0001 </r>
        <r>  0.0000  0.0742  0.0311  0.0023  0.0002  0.0000  0.0000  0.0004  0.0001 </r>
        <r>  0.0000  0.0877  0.0772  0.0184  0.0004  0.0001  0.0000  0.0004  0.0000 </r>
       </set>
       <set comment="band 33">
        <r>  0.0000  0.0082  0.0321  0.0226  0.0050  0.0035  0.0003  0.0013  0.0002 </r>
        <r>  0.0000  0.0284  0.0160  0.0053  0.0025  0.0008  0.0011  0.0044  0.0005 </r>
        <r>  0.0000  0.0043  0.0204  0.0014  0.0031  0.0002  0.0008  0.0007  0.0002 </r>
        <r>  0.0000  0.0006  0.0064  0.0047  0.0010  0.0007  0.0017  0.0001  0.0005 </r>
        <r>  0.0000  0.0162  0.0382  0.0112  0.0002  0.0001  0.0000  0.0001  0.0001 </r>
        <r>  0.0000  0.0276  0.1034  0.0287  0.0005  0.0001  0.0001  0.0001  0.0000 </r>
        <r>  0.0000  0.0417  0.0445  0.0064  0.0002  0.0000  0.0003  0.0002  0.0000 </r>
        <r>  0.0000  0.0182  0.0012  0.0386  0.0000  0.0002  0.0001  0.0001  0.0000 </r>
       </set>
       <set comment="band 34">
        <r>  0.0000  0.0116  0.0090  0.0074  0.0014  0.0011  0.0003  0.0018  0.0007 </r>
        <r>  0.0000  0.0102  0.0015  0.0093  0.0002  0.0014  0.0003  0.0016  0.0009 </r>
        <r>  0.0000  0.0127  0.0048  0.0376  0.0007  0.0058  0.0001  0.0020  0.0011 </r>
        <r>  0.0000  0.0216  0.0050  0.0194  0.0008  0.0030  0.0005  0.0033  0.0015 </r>
        <r>  0.0000  0.0636  0.0171  0.0866  0.0001  0.0004  0.0000  0.0003  0.0001 </r>
        <r>  0.0000  0.0221  0.0213  0.0291  0.0001  0.0001  0.0000  0.0001  0.0002 </r>
        <r>  0.0000  0.0098  0.0072  0.0008  0.0000  0.0000  0.0001  0.0000  0.0002 </r>
        <r>  0.0000  0.0450  0.0052  0.0679  0.0000  0.0003  0.0000  0.0002  0.0000 </r>
       </set>
       <set comment="band 35">
        <r>  0.0000  0.0107  0.0135  0.0445  0.0021  0.0069  0.0000  0.0017  0.0002 </r>
        <r>  0.0000  0.0100  0.0168  0.0030  0.0026  0.0005  0.0002  0.0015  0.0025 </r>
        <r>  0.0000  0.0027  0.0043  0.0019  0.0007  0.0003  0.0009  0.0004  0.0005 </r>
        <r>  0.0000  0.0296  0.0003  0.0129  0.0000  0.0020  0.0007  0.0046  0.0002 </r>
        <r>  0.0000  0.0539  0.0323  0.0064  0.0002  0.0000  0.0000  0.0003  0.0002 </r>
        <r>  0.0000  0.0168  0.0365  0.1040  0.0002  0.0005  0.0000  0.0001  0.0000 </r>
        <r>  0.0000  0.0459  0.0028  0.0395  0.0000  0.0002  0.0001  0.0002  0.0001 </r>
        <r>  0.0000  0.0162  0.0156  0.0059  0.0001  0.0000  0.0001  0.0001  0.0001 </r>
       </set>
       <set comment="band 36">
        <r>  0.0000  0.0013  0.0184  0.0012  0.0028  0.0002  0.0009  0.0002  0.0005 </r>
        <r>  0.0000  0.0235  0.0167  0.0202  0.0026  0.0031  0.0003  0.0036  0.0004 </r>
        <r>  0.0000  0.0016  0.0055  0.0052  0.0009  0.0008  0.0009  0.0003  0.0007 </r>
        <r>  0.0000  0.0119  0.0173  0.0273  0.0027  0.0042  0.0010  0.0018  0.0007 </r>
        <r>  0.0000  0.0344  0.0041  0.0154  0.0000  0.0001  0.0002  0.0002  0.0000 </r>
        <r>  0.0000  0.0166  0.0400  0.0334  0.0002  0.0002  0.0000  0.0001  0.0000 </r>
        <r>  0.0000  0.0337  0.0059  0.0042  0.0000  0.0000  0.0001  0.0002  0.0002 </r>
        <r>  0.0000  0.0113  0.0949  0.0819  0.0005  0.0004  0.0000  0.0001  0.0000 </r>
       </set>
       <set comment="band 37">
        <r>  0.0461  0.0063  0.0036  0.0081  0.0007  0.0016  0.0000  0.0012  0.0000 </r>
        <r>  0.0967  0.0036  0.0063  0.0039  0.0012  0.0008  0.0000  0.0007  0.0000 </r>
        <r>  0.0758  0.0039  0.0081  0.0036  0.0016  0.0007  0.0000  0.0008  0.0000 </r>
        <r>  0.0430  0.0081  0.0039  0.0063  0.0008  0.0012  0.0000  0.0016  0.0000 </r>
        <r>  0.0387  0.0029  0.0050  0.0028  0.0019  0.0011  0.0000  0.0011  0.0000 </r>
        <r>  0.0244  0.0050  0.0029  0.0044  0.0011  0.0017  0.0000  0.0019  0.0000 </r>
        <r>  0.0254  0.0044  0.0028  0.0050  0.0011  0.0019  0.0000  0.0017  0.0000 </r>
        <r>  0.0437  0.0028  0.0044  0.0029  0.0017  0.0011  0.0000  0.0011  0.0000 </r>
       </set>
       <set comment="band 38">
        <r>  0.0663  0.0094  0.0067  0.0002  0.0013  0.0000  0.0000  0.0018  0.0000 </r>
        <r>  0.0023  0.0067  0.0094  0.0056  0.0018  0.0011  0.0000  0.0013  0.0000 </r>
        <r>  0.1125  0.0056  0.0002  0.0067  0.0000  0.0013  0.0000  0.0011  0.0000 </r>
        <r>  0.0804  0.0002  0.0056  0.0094  0.0011  0.0018  0.0000  0.0000  0.0000 </r>
        <r>  0.0240  0.0086  0.0034  0.0003  0.0013  0.0001  0.0000  0.0033  0.0000 </r>
        <r>  0.0028  0.0034  0.0086  0.0027  0.0033  0.0010  0.0000  0.0013  0.0000 </r>
        <r>  0.0752  0.0027  0.0003  0.0034  0.0001  0.0013  0.0000  0.0010  0.0000 </r>
        <r>  0.0302  0.0003  0.0027  0.0086  0.0010  0.0033  0.0000  0.0001  0.0000 </r>
       </set>
       <set comment="band 39">
        <r>  0.0428  0.0050  0.0005  0.0128  0.0001  0.0025  0.0000  0.0010  0.0000 </r>
        <r>  0.1530  0.0005  0.0050  0.0036  0.0010  0.0007  0.0000  0.0001  0.0000 </r>
        <r>  0.0597  0.0036  0.0128  0.0005  0.0025  0.0001  0.0000  0.0007  0.0000 </r>
        <r>  0.0062  0.0128  0.0036  0.0050  0.0007  0.0010  0.0000  0.0025  0.0000 </r>
        <r>  0.0220  0.0015  0.0003  0.0108  0.0001  0.0041  0.0000  0.0006  0.0000 </r>
        <r>  0.0943  0.0003  0.0015  0.0025  0.0006  0.0010  0.0000  0.0001  0.0000 </r>
        <r>  0.0135  0.0025  0.0108  0.0003  0.0041  0.0001  0.0000  0.0010  0.0000 </r>
        <r>  0.0025  0.0108  0.0025  0.0015  0.0010  0.0006  0.0000  0.0041  0.0000 </r>
       </set>
       <set comment="band 40">
        <r>  0.1063  0.0011  0.0111  0.0008  0.0022  0.0002  0.0000  0.0002  0.0000 </r>
        <r>  0.0096  0.0111  0.0011  0.0089  0.0002  0.0017  0.0000  0.0022  0.0000 </r>
        <r>  0.0136  0.0089  0.0008  0.0111  0.0002  0.0022  0.0000  0.0017  0.0000 </r>
        <r>  0.1321  0.0008  0.0089  0.0011  0.0017  0.0002  0.0000  0.0002  0.0000 </r>
        <r>  0.0476  0.0021  0.0064  0.0012  0.0024  0.0005  0.0000  0.0008  0.0000 </r>
        <r>  0.0108  0.0064  0.0021  0.0054  0.0008  0.0021  0.0000  0.0024  0.0000 </r>
        <r>  0.0181  0.0054  0.0012  0.0064  0.0005  0.0024  0.0000  0.0021  0.0000 </r>
        <r>  0.0558  0.0012  0.0054  0.0021  0.0021  0.0008  0.0000  0.0005  0.0000 </r>
       </set>
       <set comment="band 41">
        <r>  0.0000  0.0019  0.0032  0.0370  0.0003  0.0032  0.0042  0.0002  0.0001 </r>
        <r>  0.0000  0.0116  0.0228  0.0063  0.0019  0.0005  0.0017  0.0010  0.0118 </r>
        <r>  0.0000  0.0051  0.0088  0.0212  0.0008  0.0018  0.0044  0.0004  0.0025 </r>
        <r>  0.0000  0.0599  0.0221  0.0292  0.0019  0.0025  0.0006  0.0051  0.0040 </r>
        <r>  0.0000  0.0058  0.0068  0.0183  0.0035  0.0095  0.0009  0.0030  0.0007 </r>
        <r>  0.0000  0.0071  0.0010  0.0003  0.0005  0.0001  0.0037  0.0037  0.0102 </r>
        <r>  0.0000  0.0019  0.0050  0.0027  0.0026  0.0014  0.0008  0.0010  0.0036 </r>
        <r>  0.0000  0.0047  0.0012  0.0020  0.0006  0.0010  0.0051  0.0024  0.0032 </r>
       </set>
       <set comment="band 42">
        <r>  0.0000  0.0044  0.0519  0.0281  0.0044  0.0024  0.0012  0.0004  0.0013 </r>
        <r>  0.0000  0.0889  0.0022  0.0030  0.0002  0.0003  0.0022  0.0076  0.0039 </r>
        <r>  0.0000  0.0101  0.0115  0.0058  0.0010  0.0005  0.0004  0.0009  0.0015 </r>
        <r>  0.0000  0.0083  0.0064  0.0087  0.0005  0.0007  0.0100  0.0007  0.0088 </r>
        <r>  0.0000  0.0103  0.0007  0.0007  0.0003  0.0004  0.0039  0.0053  0.0001 </r>
        <r>  0.0000  0.0100  0.0089  0.0011  0.0046  0.0006  0.0023  0.0052  0.0025 </r>
        <r>  0.0000  0.0016  0.0030  0.0070  0.0016  0.0036  0.0066  0.0008  0.0041 </r>
        <r>  0.0000  0.0058  0.0053  0.0024  0.0027  0.0013  0.0005  0.0030  0.0083 </r>
       </set>
       <set comment="band 43">
        <r>  0.0000  0.0523  0.0041  0.0221  0.0003  0.0019  0.0031  0.0045  0.0064 </r>
        <r>  0.0000  0.0139  0.0417  0.0352  0.0036  0.0030  0.0011  0.0012  0.0038 </r>
        <r>  0.0000  0.0225  0.0059  0.0037  0.0005  0.0003  0.0080  0.0019  0.0042 </r>
        <r>  0.0000  0.0109  0.0160  0.0011  0.0014  0.0001  0.0008  0.0009  0.0020 </r>
        <r>  0.0000  0.0019  0.0044  0.0044  0.0023  0.0023  0.0070  0.0010  0.0052 </r>
        <r>  0.0000  0.0082  0.0027  0.0074  0.0014  0.0038  0.0002  0.0042  0.0054 </r>
        <r>  0.0000  0.0079  0.0002  0.0021  0.0001  0.0011  0.0020  0.0041  0.0010 </r>
        <r>  0.0000  0.0066  0.0095  0.0015  0.0049  0.0008  0.0032  0.0034  0.0040 </r>
       </set>
       <set comment="band 44">
        <r>  0.0000  0.0062  0.0040  0.0219  0.0003  0.0019  0.0022  0.0005  0.0017 </r>
        <r>  0.0000  0.0135  0.0085  0.0021  0.0007  0.0002  0.0157  0.0012  0.0002 </r>
        <r>  0.0000  0.0170  0.0818  0.0275  0.0070  0.0023  0.0016  0.0015  0.0021 </r>
        <r>  0.0000  0.0203  0.0116  0.0148  0.0010  0.0013  0.0008  0.0017  0.0050 </r>
        <r>  0.0000  0.0014  0.0012  0.0019  0.0006  0.0010  0.0045  0.0007  0.0013 </r>
        <r>  0.0000  0.0020  0.0119  0.0047  0.0062  0.0024  0.0053  0.0010  0.0040 </r>
        <r>  0.0000  0.0010  0.0071  0.0002  0.0037  0.0001  0.0089  0.0005  0.0026 </r>
        <r>  0.0000  0.0097  0.0061  0.0097  0.0031  0.0050  0.0009  0.0050  0.0008 </r>
       </set>
       <set comment="band 45">
        <r>  0.0000  0.0019  0.0200  0.0035  0.0017  0.0003  0.0026  0.0002  0.0072 </r>
        <r>  0.0000  0.0050  0.0182  0.0364  0.0016  0.0031  0.0039  0.0004  0.0044 </r>
        <r>  0.0000  0.0266  0.0205  0.0344  0.0018  0.0029  0.0035  0.0023  0.0002 </r>
        <r>  0.0000  0.0409  0.0134  0.0084  0.0011  0.0007  0.0038  0.0035  0.0038 </r>
        <r>  0.0000  0.0100  0.0007  0.0096  0.0003  0.0050  0.0001  0.0052  0.0014 </r>
        <r>  0.0000  0.0030  0.0001  0.0016  0.0001  0.0008  0.0127  0.0016  0.0026 </r>
        <r>  0.0000  0.0013  0.0170  0.0013  0.0088  0.0007  0.0001  0.0007  0.0090 </r>
        <r>  0.0000  0.0041  0.0001  0.0081  0.0001  0.0042  0.0005  0.0021  0.0020 </r>
       </set>
       <set comment="band 46">
        <r>  0.0000  0.0200  0.0009  0.0171  0.0001  0.0015  0.0060  0.0017  0.0060 </r>
        <r>  0.0000  0.0165  0.0432  0.0158  0.0037  0.0014  0.0008  0.0014  0.0026 </r>
        <r>  0.0000  0.0465  0.0041  0.0163  0.0004  0.0014  0.0083  0.0040  0.0014 </r>
        <r>  0.0000  0.0049  0.0312  0.0127  0.0027  0.0011  0.0002  0.0004  0.0041 </r>
        <r>  0.0000  0.0026  0.0008  0.0005  0.0004  0.0003  0.0078  0.0014  0.0126 </r>
        <r>  0.0000  0.0016  0.0082  0.0131  0.0042  0.0068  0.0002  0.0008  0.0002 </r>
        <r>  0.0000  0.0175  0.0003  0.0002  0.0001  0.0001  0.0061  0.0091  0.0000 </r>
        <r>  0.0000  0.0001  0.0104  0.0015  0.0054  0.0008  0.0006  0.0000  0.0007 </r>
       </set>
       <set comment="band 47">
        <r>  0.0000  0.0652  0.0036  0.0009  0.0003  0.0001  0.0077  0.0056  0.0027 </r>
        <r>  0.0000  0.0001  0.0001  0.0218  0.0000  0.0019  0.0013  0.0000  0.0001 </r>
        <r>  0.0000  0.0193  0.0069  0.0041  0.0006  0.0003  0.0000  0.0016  0.0165 </r>
        <r>  0.0000  0.0031  0.0402  0.0640  0.0034  0.0055  0.0007  0.0003  0.0003 </r>
        <r>  0.0000  0.0039  0.0020  0.0002  0.0011  0.0001  0.0033  0.0020  0.0063 </r>
        <r>  0.0000  0.0059  0.0027  0.0082  0.0014  0.0042  0.0026  0.0030  0.0019 </r>
        <r>  0.0000  0.0067  0.0035  0.0014  0.0018  0.0007  0.0020  0.0035  0.0075 </r>
        <r>  0.0000  0.0053  0.0044  0.0126  0.0023  0.0066  0.0015  0.0028  0.0031 </r>
       </set>
       <set comment="band 48">
        <r>  0.0000  0.0010  0.0650  0.0221  0.0056  0.0019  0.0023  0.0001  0.0041 </r>
        <r>  0.0000  0.0033  0.0162  0.0321  0.0014  0.0027  0.0026  0.0003  0.0025 </r>
        <r>  0.0000  0.0057  0.0134  0.0400  0.0011  0.0034  0.0031  0.0005  0.0009 </r>
        <r>  0.0000  0.0046  0.0119  0.0139  0.0010  0.0012  0.0125  0.0004  0.0014 </r>
        <r>  0.0000  0.0019  0.0213  0.0022  0.0111  0.0011  0.0007  0.0010  0.0006 </r>
        <r>  0.0000  0.0001  0.0024  0.0015  0.0012  0.0008  0.0013  0.0001  0.0014 </r>
        <r>  0.0000  0.0001  0.0018  0.0231  0.0009  0.0120  0.0018  0.0000  0.0003 </r>
        <r>  0.0000  0.0015  0.0009  0.0000  0.0005  0.0000  0.0159  0.0008  0.0062 </r>
       </set>
      </set>
     </set>
    </set>
   </array>
  </projected>
 </calculation>
 <structure name="finalpos" >
  <crystal>
   <varray name="basis" >
    <v>       6.05836000       0.00000000       0.00000000 </v>
    <v>       0.00000000       6.05836000       0.00000000 </v>
    <v>       0.00000000       0.00000000       6.05836000 </v>
   </varray>
   <i name="volume">    222.36438478 </i>
   <varray name="rec_basis" >
    <v>       0.16506117      -0.00000000      -0.00000000 </v>
    <v>       0.00000000       0.16506117      -0.00000000 </v>
    <v>       0.00000000       0.00000000       0.16506117 </v>
   </varray>
  </crystal>
  <varray name="positions" >
   <v>       0.00000000       0.00000000       0.00000000 </v>
   <v>       0.00000000       0.50000000       0.50000000 </v>
   <v>       0.50000000       0.00000000       0.50000000 </v>
   <v>       0.50000000       0.50000000       0.00000000 </v>
   <v>       0.75000000       0.75000000       0.25000000 </v>
   <v>       0.75000000       0.25000000       0.75000000 </v>
   <v>       0.25000000       0.75000000       0.75000000 </v>
   <v>       0.25000000       0.25000000       0.25000000 </v>
  </varray>
 </structure>
</modeling>
