 vasp.5.4.4.18Apr17-6-g9f103f2a35 (build Apr  9 2020 10:35:27) complex           
 executed on             LinuxGNU date 2021.04.04  17:36:57
 running on    1 total cores
 distrk:  each k-point on    1 cores,    1 groups
 distr:  one band on NCORES_PER_BAND=   1 cores,    1 groups


--------------------------------------------------------------------------------------------------------


 INCAR:
 POTCAR:    PAW_PBE Si 05Jan2001                  
 POTCAR:    PAW_PBE Si 05Jan2001                  
   VRHFIN =Si: s2p2                                                             
   LEXCH  = PE                                                                  
   EATOM  =   103.0669 eV,    7.5752 Ry                                         
                                                                                
   TITEL  = PAW_PBE Si 05Jan2001                                                
   LULTRA =        F    use ultrasoft PP ?                                      
   IUNSCR =        1    unscreen: 0-lin 1-nonlin 2-no                           
   RPACOR =    1.500    partial core radius                                     
   POMASS =   28.085; ZVAL   =    4.000    mass and valenz                      
   RCORE  =    1.900    outmost cutoff radius                                   
   RWIGS  =    2.480; RWIGS  =    1.312    wigner-seitz radius (au A)           
   ENMAX  =  245.345; ENMIN  =  184.009 eV                                      
   ICORE  =        2    local potential                                         
   LCOR   =        T    correct aug charges                                     
   LPAW   =        T    paw PP                                                  
   EAUG   =  322.069                                                            
   DEXC   =    0.000                                                            
   RMAX   =    1.950    core radius for proj-oper                               
   RAUG   =    1.300    factor for augmentation sphere                          
   RDEP   =    1.993    radius for radial grids                                 
   RDEPT  =    1.837    core radius for aug-charge                              
                                                                                
   Atomic configuration                                                         
    6 entries                                                                   
     n  l   j            E        occ.                                          
     1  0  0.50     -1785.8828   2.0000                                         
     2  0  0.50      -139.4969   2.0000                                         
     2  1  1.50       -95.5546   6.0000                                         
     3  0  0.50       -10.8127   2.0000                                         
     3  1  0.50        -4.0811   2.0000                                         
     3  2  1.50        -4.0817   0.0000                                         
   Description                                                                  
     l       E           TYP  RCUT    TYP  RCUT                                 
     0    -10.8127223     23  1.900                                             
     0     -7.6451159     23  1.900                                             
     1     -4.0811372     23  1.900                                             
     1      2.4879257     23  1.900                                             
     2     -4.0817478      7  1.900                                             
  local pseudopotential read in
  partial core-charges read in
  partial kinetic energy density read in
  atomic valenz-charges read in
  non local Contribution for L=           0  read in
    real space projection operators read in
  non local Contribution for L=           0  read in
    real space projection operators read in
  non local Contribution for L=           1  read in
    real space projection operators read in
  non local Contribution for L=           1  read in
    real space projection operators read in
    PAW grid and wavefunctions read in

   number of l-projection  operators is LMAX  =           4
   number of lm-projection operators is LMMAX =           8


 ----------------------------------------------------------------------------- 
|                                                                             |
|  ADVICE TO THIS USER RUNNING 'VASP/VAMP'   (HEAR YOUR MASTER'S VOICE ...):  |
|                                                                             |
|      You have a (more or less) 'small supercell' and for smaller cells      |
|      it is recommended  to use the reciprocal-space projection scheme!      |
|      The real space optimization is not  efficient for small cells and it   |
|      is also less accurate ...                                              |
|      Therefore set LREAL=.FALSE. in the  INCAR file                         |
|                                                                             |
 ----------------------------------------------------------------------------- 

 Optimization of the real space projectors (new method)

 maximal supplied QI-value         = 19.84
 optimisation between [QCUT,QGAM] = [  8.73, 17.66] = [ 21.34, 87.33] Ry 
 Optimized for a Real-space Cutoff    1.46 Angstroem

   l    n(q)    QCUT    max X(q) W(low)/X(q) W(high)/X(q)  e(spline) 
   0      8     8.731   159.560    0.25E-03    0.77E-04    0.13E-06
   0      8     8.731   115.863    0.24E-03    0.77E-04    0.13E-06
   1      7     8.731    88.339    0.12E-03    0.40E-03    0.15E-06
   1      7     8.731    48.592    0.12E-03    0.39E-03    0.15E-06
  PAW_PBE Si 05Jan2001                  :
 energy of atom  1       EATOM= -103.0669
 kinetic energy error for atom=    0.0021 (will be added to EATOM!!)


 POSCAR: generated by phonopy                    
  positions in direct lattice
  No initial velocities read in
 exchange correlation table for  LEXCH =        8
   RHO(1)=    0.500       N(1)  =     2000
   RHO(2)=  100.500       N(2)  =     4000



--------------------------------------------------------------------------------------------------------


 ion  position               nearest neighbor table
   1  0.780  0.770  0.730-   2 1.78   2 2.29   2 2.74   2 3.14
   2  0.600  0.300  0.400-   1 1.78   1 2.29   1 2.74   1 3.14

  LATTYP: Found a face centered cubic cell.
 ALAT       =     5.4687280000
  
  Lattice vectors:
  
 A1 = (   0.0000000000,   2.7343640000,   2.7343640000)
 A2 = (   2.7343640000,   0.0000000000,   2.7343640000)
 A3 = (   2.7343640000,   2.7343640000,   0.0000000000)


Analysis of symmetry for initial positions (statically):
=====================================================================
 Subroutine PRICEL returns:
 Original cell was already a primitive cell.
 

 Routine SETGRP: Setting up the symmetry group for a 
 face centered cubic supercell.


 Subroutine GETGRP returns: Found  2 space group operations
 (whereof  1 operations were pure point group operations)
 out of a pool of 48 trial point group operations.


The static configuration has the point symmetry C_1 .
 The point group associated with its full space group is S_2 .


Analysis of symmetry for dynamics (positions and initial velocities):
=====================================================================
 Subroutine PRICEL returns:
 Original cell was already a primitive cell.
 

 Routine SETGRP: Setting up the symmetry group for a 
 face centered cubic supercell.


 Subroutine GETGRP returns: Found  2 space group operations
 (whereof  1 operations were pure point group operations)
 out of a pool of 48 trial point group operations.


The dynamic configuration has the point symmetry C_1 .
 The point group associated with its full space group is S_2 .


 Subroutine INISYM returns: Found  2 space group operations
 (whereof  1 operations are pure point group operations),
 and found     1 'primitive' translations



 KPOINTS: pymatgen v2021.2.8.1 with grid density =

Automatic generation of k-mesh.
Space group operators:
 irot       det(A)        alpha          n_x          n_y          n_z        tau_x        tau_y        tau_z
    1     1.000000     0.000000     1.000000     0.000000     0.000000     0.000000     0.000000     0.000000
    2    -1.000000     0.000000     1.000000     0.000000     0.000000     0.380000     0.070000     0.130000
 
 Subroutine IBZKPT returns following result:
 ===========================================
 
 Found    128 irreducible k-points:
 
 Following reciprocal coordinates:
            Coordinates               Weight
  0.125000  0.125000  0.125000     24.000000
  0.125000  0.000000  0.000000     24.000000
  0.000000  0.000000 -0.125000     24.000000
  0.000000  0.125000  0.000000     24.000000
  0.375000  0.125000  0.125000     24.000000
  0.125000  0.375000  0.125000     24.000000
  0.125000  0.125000  0.375000     24.000000
  0.125000  0.000000 -0.250000     24.000000
  0.375000  0.250000  0.250000     24.000000
  0.125000 -0.250000  0.000000     24.000000
  0.000000  0.250000 -0.125000     24.000000
  0.250000  0.000000 -0.125000     24.000000
 -0.250000 -0.250000 -0.375000     24.000000
  0.250000  0.375000  0.250000     24.000000
  0.000000  0.125000 -0.250000     24.000000
 -0.250000  0.125000  0.000000     24.000000
 -0.375000  0.125000  0.125000     24.000000
  0.125000 -0.375000  0.125000     24.000000
  0.125000  0.125000 -0.375000     24.000000
  0.125000  0.000000  0.500000     24.000000
 -0.375000  0.500000  0.500000     24.000000
  0.125000  0.500000  0.000000     24.000000
  0.000000  0.500000 -0.125000     24.000000
  0.500000  0.000000 -0.125000     24.000000
  0.500000  0.500000  0.375000     24.000000
  0.500000 -0.375000  0.500000     24.000000
  0.000000  0.125000  0.500000     24.000000
  0.500000  0.125000  0.000000     24.000000
 -0.125000  0.125000  0.125000     24.000000
  0.125000 -0.125000  0.125000     24.000000
  0.125000  0.125000 -0.125000     24.000000
  0.125000  0.000000  0.250000     24.000000
 -0.125000 -0.250000 -0.250000     24.000000
  0.125000  0.250000  0.000000     24.000000
  0.000000 -0.250000 -0.125000     24.000000
 -0.250000  0.000000 -0.125000     24.000000
  0.250000  0.250000  0.125000     24.000000
 -0.250000 -0.125000 -0.250000     24.000000
  0.000000  0.125000  0.250000     24.000000
  0.250000  0.125000  0.000000     24.000000
  0.375000  0.375000  0.125000     24.000000
  0.125000  0.375000  0.375000     24.000000
  0.375000  0.125000  0.375000     24.000000
  0.375000  0.250000  0.000000     24.000000
  0.375000  0.000000  0.250000     24.000000
  0.125000 -0.250000 -0.250000     24.000000
  0.250000  0.250000 -0.125000     24.000000
  0.000000 -0.250000 -0.375000     24.000000
 -0.250000  0.000000 -0.375000     24.000000
  0.250000  0.375000  0.000000     24.000000
 -0.250000  0.125000 -0.250000     24.000000
  0.000000  0.375000  0.250000     24.000000
 -0.375000  0.375000  0.125000     24.000000
  0.125000 -0.375000  0.375000     24.000000
  0.375000  0.125000 -0.375000     24.000000
  0.375000  0.250000 -0.250000     24.000000
 -0.375000  0.250000  0.500000     24.000000
  0.125000  0.500000 -0.250000     24.000000
  0.250000  0.500000 -0.125000     24.000000
  0.250000 -0.250000 -0.375000     24.000000
  0.500000 -0.250000  0.375000     24.000000
  0.500000 -0.375000  0.250000     24.000000
 -0.250000  0.125000  0.500000     24.000000
 -0.250000  0.375000  0.250000     24.000000
 -0.125000  0.250000  0.500000     24.000000
 -0.375000  0.250000 -0.250000     24.000000
  0.375000  0.500000 -0.250000     24.000000
  0.250000  0.500000 -0.375000     24.000000
  0.500000 -0.250000  0.125000     24.000000
  0.250000 -0.250000  0.375000     24.000000
  0.500000 -0.125000  0.250000     24.000000
 -0.250000 -0.375000  0.250000     24.000000
 -0.250000  0.375000  0.500000     24.000000
  0.375000 -0.125000 -0.375000     24.000000
 -0.375000  0.375000 -0.125000     24.000000
 -0.125000 -0.375000  0.375000     24.000000
 -0.125000  0.375000  0.125000     24.000000
  0.125000 -0.125000  0.375000     24.000000
  0.375000  0.125000 -0.125000     24.000000
  0.375000  0.250000  0.500000     24.000000
 -0.125000  0.500000 -0.250000     24.000000
  0.125000  0.250000 -0.250000     24.000000
  0.250000 -0.250000 -0.125000     24.000000
  0.500000 -0.250000 -0.375000     24.000000
  0.250000  0.500000  0.125000     24.000000
 -0.250000 -0.125000  0.500000     24.000000
 -0.250000  0.125000  0.250000     24.000000
  0.500000  0.375000  0.250000     24.000000
 -0.125000  0.250000 -0.250000     24.000000
 -0.375000  0.500000 -0.250000     24.000000
  0.125000  0.250000  0.500000     24.000000
  0.500000 -0.250000 -0.125000     24.000000
  0.250000 -0.250000  0.125000     24.000000
  0.250000  0.500000  0.375000     24.000000
 -0.250000 -0.125000  0.250000     24.000000
 -0.250000 -0.375000  0.500000     24.000000
  0.500000  0.125000  0.250000     24.000000
  0.125000 -0.125000 -0.375000     24.000000
 -0.375000  0.125000 -0.125000     24.000000
 -0.125000 -0.375000  0.125000     24.000000
 -0.375000 -0.375000  0.125000     24.000000
  0.125000 -0.375000 -0.375000     24.000000
 -0.375000  0.125000 -0.375000     24.000000
 -0.375000  0.500000  0.000000     24.000000
 -0.375000  0.000000  0.500000     24.000000
  0.125000  0.500000  0.500000     24.000000
  0.500000  0.500000 -0.125000     24.000000
  0.000000  0.500000  0.375000     24.000000
  0.500000  0.000000  0.375000     24.000000
  0.500000 -0.375000  0.000000     24.000000
  0.500000  0.125000  0.500000     24.000000
  0.000000 -0.375000  0.500000     24.000000
  0.375000  0.375000  0.375000     24.000000
  0.375000  0.000000  0.000000     24.000000
  0.000000  0.000000 -0.375000     24.000000
  0.000000  0.375000  0.000000     24.000000
 -0.375000  0.375000  0.375000     24.000000
  0.375000 -0.375000  0.375000     24.000000
  0.375000  0.375000 -0.375000     24.000000
  0.375000  0.000000 -0.250000     24.000000
 -0.375000  0.250000  0.250000     24.000000
  0.375000 -0.250000  0.000000     24.000000
  0.000000  0.250000 -0.375000     24.000000
  0.250000  0.000000 -0.375000     24.000000
 -0.250000 -0.250000  0.375000     24.000000
  0.250000 -0.375000  0.250000     24.000000
  0.000000  0.375000 -0.250000     24.000000
 -0.250000  0.375000  0.000000     24.000000
 
 Following cartesian coordinates:
            Coordinates               Weight
  0.022857  0.022857  0.022857     24.000000
 -0.022857  0.022857  0.022857     24.000000
 -0.022857 -0.022857  0.022857     24.000000
  0.022857 -0.022857  0.022857     24.000000
 -0.022857  0.068572  0.068572     24.000000
  0.068572 -0.022857  0.068572     24.000000
  0.068572  0.068572 -0.022857     24.000000
 -0.068572 -0.022857  0.068572     24.000000
  0.022857  0.068572  0.068572     24.000000
 -0.068572  0.068572 -0.022857     24.000000
  0.022857 -0.068572  0.068572     24.000000
 -0.068572  0.022857  0.068572     24.000000
 -0.068572 -0.068572 -0.022857     24.000000
  0.068572  0.022857  0.068572     24.000000
 -0.022857 -0.068572  0.068572     24.000000
  0.068572 -0.068572 -0.022857     24.000000
  0.114286 -0.068572 -0.068572     24.000000
 -0.068572  0.114286 -0.068572     24.000000
 -0.068572 -0.068572  0.114286     24.000000
  0.068572  0.114286 -0.068572     24.000000
  0.251430 -0.068572 -0.068572     24.000000
  0.068572 -0.068572  0.114286     24.000000
  0.068572 -0.114286  0.114286     24.000000
 -0.114286  0.068572  0.114286     24.000000
  0.068572  0.068572  0.114286     24.000000
 -0.068572  0.251430 -0.068572     24.000000
  0.114286  0.068572 -0.068572     24.000000
 -0.068572  0.068572  0.114286     24.000000
  0.068572 -0.022857 -0.022857     24.000000
 -0.022857  0.068572 -0.022857     24.000000
 -0.022857 -0.022857  0.068572     24.000000
  0.022857  0.068572 -0.022857     24.000000
 -0.068572 -0.022857 -0.022857     24.000000
  0.022857 -0.022857  0.068572     24.000000
 -0.068572  0.022857 -0.022857     24.000000
  0.022857 -0.068572 -0.022857     24.000000
  0.022857  0.022857  0.068572     24.000000
 -0.022857 -0.068572 -0.022857     24.000000
  0.068572  0.022857 -0.022857     24.000000
 -0.022857  0.022857  0.068572     24.000000
  0.022857  0.022857  0.114286     24.000000
  0.114286  0.022857  0.022857     24.000000
  0.022857  0.114286  0.022857     24.000000
 -0.022857  0.022857  0.114286     24.000000
 -0.022857  0.114286  0.022857     24.000000
 -0.114286  0.022857  0.022857     24.000000
 -0.022857 -0.022857  0.114286     24.000000
 -0.114286 -0.022857  0.022857     24.000000
 -0.022857 -0.114286  0.022857     24.000000
  0.022857 -0.022857  0.114286     24.000000
  0.022857 -0.114286  0.022857     24.000000
  0.114286 -0.022857  0.022857     24.000000
  0.160001 -0.114286 -0.022857     24.000000
 -0.022857  0.160001 -0.114286     24.000000
 -0.114286 -0.022857  0.160001     24.000000
 -0.068572 -0.022857  0.160001     24.000000
  0.205715 -0.022857 -0.114286     24.000000
  0.022857 -0.114286  0.160001     24.000000
  0.022857 -0.068572  0.160001     24.000000
 -0.160001  0.022857  0.068572     24.000000
 -0.068572  0.205715 -0.022857     24.000000
 -0.114286  0.205715 -0.022857     24.000000
  0.160001  0.022857 -0.114286     24.000000
  0.160001 -0.068572 -0.022857     24.000000
  0.160001  0.022857 -0.068572     24.000000
  0.068572 -0.160001  0.022857     24.000000
 -0.022857 -0.068572  0.205715     24.000000
 -0.022857 -0.114286  0.205715     24.000000
 -0.114286  0.160001  0.022857     24.000000
 -0.022857  0.160001 -0.068572     24.000000
 -0.068572  0.160001  0.022857     24.000000
  0.022857  0.068572 -0.160001     24.000000
  0.205715 -0.022857 -0.068572     24.000000
 -0.160001  0.022857  0.114286     24.000000
  0.114286 -0.160001  0.022857     24.000000
  0.022857  0.114286 -0.160001     24.000000
  0.114286 -0.068572  0.022857     24.000000
  0.022857  0.114286 -0.068572     24.000000
 -0.068572  0.022857  0.114286     24.000000
  0.068572  0.114286  0.022857     24.000000
  0.068572 -0.160001  0.114286     24.000000
 -0.022857 -0.068572  0.114286     24.000000
 -0.114286  0.068572  0.022857     24.000000
 -0.205715  0.068572  0.114286     24.000000
  0.068572 -0.022857  0.114286     24.000000
  0.114286  0.068572 -0.160001     24.000000
  0.114286 -0.022857 -0.068572     24.000000
  0.022857  0.068572  0.114286     24.000000
  0.022857 -0.114286  0.068572     24.000000
  0.114286 -0.205715  0.068572     24.000000
  0.114286  0.068572 -0.022857     24.000000
 -0.160001  0.114286  0.068572     24.000000
 -0.068572  0.114286 -0.022857     24.000000
  0.114286  0.022857  0.068572     24.000000
  0.068572  0.022857 -0.114286     24.000000
  0.068572  0.114286 -0.205715     24.000000
 -0.022857  0.114286  0.068572     24.000000
 -0.114286 -0.022857  0.068572     24.000000
  0.068572 -0.114286 -0.022857     24.000000
 -0.022857  0.068572 -0.114286     24.000000
  0.022857  0.022857 -0.160001     24.000000
 -0.160001  0.022857  0.022857     24.000000
  0.022857 -0.160001  0.022857     24.000000
  0.160001 -0.160001  0.022857     24.000000
  0.160001  0.022857 -0.160001     24.000000
  0.160001  0.022857  0.022857     24.000000
 -0.022857 -0.022857  0.205715     24.000000
  0.160001 -0.022857  0.022857     24.000000
 -0.022857  0.160001  0.022857     24.000000
 -0.160001  0.160001  0.022857     24.000000
  0.022857  0.160001  0.022857     24.000000
  0.022857  0.160001 -0.160001     24.000000
  0.068572  0.068572  0.068572     24.000000
 -0.068572  0.068572  0.068572     24.000000
 -0.068572 -0.068572  0.068572     24.000000
  0.068572 -0.068572  0.068572     24.000000
  0.205715 -0.068572 -0.068572     24.000000
 -0.068572  0.205715 -0.068572     24.000000
 -0.068572 -0.068572  0.205715     24.000000
 -0.114286  0.022857  0.114286     24.000000
  0.160001 -0.068572 -0.068572     24.000000
 -0.114286  0.114286  0.022857     24.000000
 -0.022857 -0.114286  0.114286     24.000000
 -0.114286 -0.022857  0.114286     24.000000
  0.068572  0.068572 -0.160001     24.000000
 -0.068572  0.160001 -0.068572     24.000000
  0.022857 -0.114286  0.114286     24.000000
  0.114286 -0.114286  0.022857     24.000000
 


--------------------------------------------------------------------------------------------------------




 Dimension of arrays:
   k-points           NKPTS =    128   k-points in BZ     NKDIM =    128   number of bands    NBANDS=      8
   number of dos      NEDOS =    301   number of ions     NIONS =      2
   non local maximal  LDIM  =      4   non local SUM 2l+1 LMDIM =      8
   total plane-waves  NPLWV =  13824
   max r-space proj   IRMAX =   4446   max aug-charges    IRDMAX=  11502
   dimension x,y,z NGX =    24 NGY =   24 NGZ =   24
   dimension x,y,z NGXF=    48 NGYF=   48 NGZF=   48
   support grid    NGXF=    48 NGYF=   48 NGZF=   48
   ions per type =               2
   NGX,Y,Z   is equivalent  to a cutoff of  10.32, 10.32, 10.32 a.u.
   NGXF,Y,Z  is equivalent  to a cutoff of  20.64, 20.64, 20.64 a.u.

 SYSTEM =  unknown system                          
 POSCAR =  generated by phonopy                    

 Startparameter for this run:
   NWRITE =      2    write-flag & timer
   PREC   = accura    normal or accurate (medium, high low for compatibility)
   ISTART =      0    job   : 0-new  1-cont  2-samecut
   ICHARG =      2    charge: 1-file 2-atom 10-const
   ISPIN  =      1    spin polarized calculation?
   LNONCOLLINEAR =      F non collinear calculations
   LSORBIT =      F    spin-orbit coupling
   INIWAV =      1    electr: 0-lowe 1-rand  2-diag
   LASPH  =      T    aspherical Exc in radial PAW
   METAGGA=      F    non-selfconsistent MetaGGA calc.

 Electronic Relaxation 1
   ENCUT  =  300.0 eV  22.05 Ry    4.70 a.u.   5.46  5.46  5.46*2*pi/ulx,y,z
   ENINI  =  300.0     initial cutoff
   ENAUG  =  322.1 eV  augmentation charge cutoff
   NELM   =    100;   NELMIN=  2; NELMDL=  0     # of ELM steps 
   EDIFF  = 0.4E-03   stopping-criterion for ELM
   LREAL  =      T    real-space projection
   NLSPLINE    = F    spline interpolate recip. space projectors
   LCOMPAT=      F    compatible to vasp.4.4
   GGA_COMPAT  = T    GGA compatible to vasp.4.4-vasp.4.6
   LMAXPAW     = -100 max onsite density
   LMAXMIX     =    2 max onsite mixed and CHGCAR
   VOSKOWN=      0    Vosko Wilk Nusair interpolation
   ROPT   =   -0.00025
 Ionic relaxation
   EDIFFG = 0.4E-02   stopping-criterion for IOM
   NSW    =      2    number of steps for IOM
   NBLOCK =      1;   KBLOCK =      2    inner block; outer block 
   IBRION =      2    ionic relax: 0-MD 1-quasi-New 2-CG
   NFREE  =      1    steps in history (QN), initial steepest desc. (CG)
   ISIF   =      3    stress and relaxation
   IWAVPR =     11    prediction:  0-non 1-charg 2-wave 3-comb
   ISYM   =      2    0-nonsym 1-usesym 2-fastsym
   LCORR  =      T    Harris-Foulkes like correction to forces

   POTIM  = 0.5000    time-step for ionic-motion
   TEIN   =    0.0    initial temperature
   TEBEG  =    0.0;   TEEND  =   0.0 temperature during run
   SMASS  =  -3.00    Nose mass-parameter (am)
   estimated Nose-frequenzy (Omega)   =  0.10E-29 period in steps =****** mass=  -0.342E-27a.u.
   SCALEE = 1.0000    scale energy and forces
   NPACO  =    256;   APACO  = 16.0  distance and # of slots for P.C.
   PSTRESS=    0.0 pullay stress

  Mass of Ions in am
   POMASS =  28.09
  Ionic Valenz
   ZVAL   =   4.00
  Atomic Wigner-Seitz radii
   RWIGS  =  -1.00
  virtual crystal weights 
   VCA    =   1.00
   NELECT =       8.0000    total number of electrons
   NUPDOWN=      -1.0000    fix difference up-down

 DOS related values:
   EMIN   =  10.00;   EMAX   =-10.00  energy-range for DOS
   EFERMI =   0.00
   ISMEAR =     0;   SIGMA  =   0.05  broadening in eV -4-tet -1-fermi 0-gaus

 Electronic relaxation 2 (details)
   IALGO  =     38    algorithm
   LDIAG  =      T    sub-space diagonalisation (order eigenvalues)
   LSUBROT=      F    optimize rotation matrix (better conditioning)
   TURBO    =      0    0=normal 1=particle mesh
   IRESTART =      0    0=no restart 2=restart with 2 vectors
   NREBOOT  =      0    no. of reboots
   NMIN     =      0    reboot dimension
   EREF     =   0.00    reference energy to select bands
   IMIX   =      4    mixing-type and parameters
     AMIX     =   0.40;   BMIX     =  1.00
     AMIX_MAG =   1.60;   BMIX_MAG =  1.00
     AMIN     =   0.10
     WC   =   100.;   INIMIX=   1;  MIXPRE=   1;  MAXMIX= -45

 Intra band minimization:
   WEIMIN = 0.0010     energy-eigenvalue tresh-hold
   EBREAK =  0.13E-04  absolut break condition
   DEPER  =   0.30     relativ break condition  

   TIME   =   0.40     timestep for ELM

  volume/ion in A,a.u.               =      20.44       137.96
  Fermi-wavevector in a.u.,A,eV,Ry     =   0.950397  1.795990 12.289529  0.903255
  Thomas-Fermi vector in A             =   2.078770

 Write flags
   LWAVE        =      F    write WAVECAR
   LDOWNSAMPLE  =      F    k-point downsampling of WAVECAR
   LCHARG       =      T    write CHGCAR
   LVTOT        =      F    write LOCPOT, total local potential
   LVHAR        =      F    write LOCPOT, Hartree potential only
   LELF         =      F    write electronic localiz. function (ELF)
   LORBIT       =      0    0 simple, 1 ext, 2 COOP (PROOUT), +10 PAW based schemes


 Dipole corrections
   LMONO  =      F    monopole corrections only (constant potential shift)
   LDIPOL =      F    correct potential (dipole corrections)
   IDIPOL =      0    1-x, 2-y, 3-z, 4-all directions 
   EPSILON=  1.0000000 bulk dielectric constant

 Exchange correlation treatment:
   GGA     =    --    GGA type
   LEXCH   =     8    internal setting for exchange type
   VOSKOWN=      0    Vosko Wilk Nusair interpolation
   LHFCALC =     F    Hartree Fock is set to
   LHFONE  =     F    Hartree Fock one center treatment
   AEXX    =    0.0000 exact exchange contribution

 Linear response parameters
   LEPSILON=     F    determine dielectric tensor
   LRPA    =     F    only Hartree local field effects (RPA)
   LNABLA  =     F    use nabla operator in PAW spheres
   LVEL    =     F    velocity operator in full k-point grid
   LINTERFAST=   F  fast interpolation
   KINTER  =     0    interpolate to denser k-point grid
   CSHIFT  =0.1000    complex shift for real part using Kramers Kronig
   OMEGAMAX=  -1.0    maximum frequency
   DEG_THRESHOLD= 0.2000000E-02 threshold for treating states as degnerate
   RTIME   =   -0.100 relaxation time in fs
  (WPLASMAI=    0.000 imaginary part of plasma frequency in eV, 0.658/RTIME)
   DFIELD  = 0.0000000 0.0000000 0.0000000 field for delta impulse in time

 Orbital magnetization related:
   ORBITALMAG=     F  switch on orbital magnetization
   LCHIMAG   =     F  perturbation theory with respect to B field
   DQ        =  0.001000  dq finite difference perturbation B field
   LLRAUG    =     F  two centre corrections for induced B field



--------------------------------------------------------------------------------------------------------


 conjugate gradient relaxation of ions
 charge density and potential will be updated during run
 non-spin polarized calculation
 Variant of blocked Davidson
 Davidson routine will perform the subspace rotation
 perform sub-space diagonalisation
    after iterative eigenvector-optimisation
 modified Broyden-mixing scheme, WC =      100.0
 initial mixing is a Kerker type mixing with AMIX =  0.4000 and BMIX =      1.0000
 Hartree-type preconditioning will be used
 using additional bands            4
 real space projection scheme for non local part
 use partial core corrections
 calculate Harris-corrections to forces   (improved forces if not selfconsistent)
 use gradient corrections 
 use of overlap-Matrix (Vanderbilt PP)
 Gauss-broadening in eV      SIGMA  =   0.05


--------------------------------------------------------------------------------------------------------


  energy-cutoff  :      300.00
  volume of cell :       40.89
      direct lattice vectors                 reciprocal lattice vectors
     0.000000000  2.734364000  2.734364000    -0.182857878  0.182857878  0.182857878
     2.734364000  0.000000000  2.734364000     0.182857878 -0.182857878  0.182857878
     2.734364000  2.734364000  0.000000000     0.182857878  0.182857878 -0.182857878

  length of vectors
     3.866974653  3.866974653  3.866974653     0.316719136  0.316719136  0.316719136



 k-points in units of 2pi/SCALE and weight: pymatgen v2021.2.8.1 with grid density =
   0.02285723  0.02285723  0.02285723       0.008
  -0.02285723  0.02285723  0.02285723       0.008
  -0.02285723 -0.02285723  0.02285723       0.008
   0.02285723 -0.02285723  0.02285723       0.008
  -0.02285723  0.06857170  0.06857170       0.008
   0.06857170 -0.02285723  0.06857170       0.008
   0.06857170  0.06857170 -0.02285723       0.008
  -0.06857170 -0.02285723  0.06857170       0.008
   0.02285723  0.06857170  0.06857170       0.008
  -0.06857170  0.06857170 -0.02285723       0.008
   0.02285723 -0.06857170  0.06857170       0.008
  -0.06857170  0.02285723  0.06857170       0.008
  -0.06857170 -0.06857170 -0.02285723       0.008
   0.06857170  0.02285723  0.06857170       0.008
  -0.02285723 -0.06857170  0.06857170       0.008
   0.06857170 -0.06857170 -0.02285723       0.008
   0.11428617 -0.06857170 -0.06857170       0.008
  -0.06857170  0.11428617 -0.06857170       0.008
  -0.06857170 -0.06857170  0.11428617       0.008
   0.06857170  0.11428617 -0.06857170       0.008
   0.25142958 -0.06857170 -0.06857170       0.008
   0.06857170 -0.06857170  0.11428617       0.008
   0.06857170 -0.11428617  0.11428617       0.008
  -0.11428617  0.06857170  0.11428617       0.008
   0.06857170  0.06857170  0.11428617       0.008
  -0.06857170  0.25142958 -0.06857170       0.008
   0.11428617  0.06857170 -0.06857170       0.008
  -0.06857170  0.06857170  0.11428617       0.008
   0.06857170 -0.02285723 -0.02285723       0.008
  -0.02285723  0.06857170 -0.02285723       0.008
  -0.02285723 -0.02285723  0.06857170       0.008
   0.02285723  0.06857170 -0.02285723       0.008
  -0.06857170 -0.02285723 -0.02285723       0.008
   0.02285723 -0.02285723  0.06857170       0.008
  -0.06857170  0.02285723 -0.02285723       0.008
   0.02285723 -0.06857170 -0.02285723       0.008
   0.02285723  0.02285723  0.06857170       0.008
  -0.02285723 -0.06857170 -0.02285723       0.008
   0.06857170  0.02285723 -0.02285723       0.008
  -0.02285723  0.02285723  0.06857170       0.008
   0.02285723  0.02285723  0.11428617       0.008
   0.11428617  0.02285723  0.02285723       0.008
   0.02285723  0.11428617  0.02285723       0.008
  -0.02285723  0.02285723  0.11428617       0.008
  -0.02285723  0.11428617  0.02285723       0.008
  -0.11428617  0.02285723  0.02285723       0.008
  -0.02285723 -0.02285723  0.11428617       0.008
  -0.11428617 -0.02285723  0.02285723       0.008
  -0.02285723 -0.11428617  0.02285723       0.008
   0.02285723 -0.02285723  0.11428617       0.008
   0.02285723 -0.11428617  0.02285723       0.008
   0.11428617 -0.02285723  0.02285723       0.008
   0.16000064 -0.11428617 -0.02285723       0.008
  -0.02285723  0.16000064 -0.11428617       0.008
  -0.11428617 -0.02285723  0.16000064       0.008
  -0.06857170 -0.02285723  0.16000064       0.008
   0.20571511 -0.02285723 -0.11428617       0.008
   0.02285723 -0.11428617  0.16000064       0.008
   0.02285723 -0.06857170  0.16000064       0.008
  -0.16000064  0.02285723  0.06857170       0.008
  -0.06857170  0.20571511 -0.02285723       0.008
  -0.11428617  0.20571511 -0.02285723       0.008
   0.16000064  0.02285723 -0.11428617       0.008
   0.16000064 -0.06857170 -0.02285723       0.008
   0.16000064  0.02285723 -0.06857170       0.008
   0.06857170 -0.16000064  0.02285723       0.008
  -0.02285723 -0.06857170  0.20571511       0.008
  -0.02285723 -0.11428617  0.20571511       0.008
  -0.11428617  0.16000064  0.02285723       0.008
  -0.02285723  0.16000064 -0.06857170       0.008
  -0.06857170  0.16000064  0.02285723       0.008
   0.02285723  0.06857170 -0.16000064       0.008
   0.20571511 -0.02285723 -0.06857170       0.008
  -0.16000064  0.02285723  0.11428617       0.008
   0.11428617 -0.16000064  0.02285723       0.008
   0.02285723  0.11428617 -0.16000064       0.008
   0.11428617 -0.06857170  0.02285723       0.008
   0.02285723  0.11428617 -0.06857170       0.008
  -0.06857170  0.02285723  0.11428617       0.008
   0.06857170  0.11428617  0.02285723       0.008
   0.06857170 -0.16000064  0.11428617       0.008
  -0.02285723 -0.06857170  0.11428617       0.008
  -0.11428617  0.06857170  0.02285723       0.008
  -0.20571511  0.06857170  0.11428617       0.008
   0.06857170 -0.02285723  0.11428617       0.008
   0.11428617  0.06857170 -0.16000064       0.008
   0.11428617 -0.02285723 -0.06857170       0.008
   0.02285723  0.06857170  0.11428617       0.008
   0.02285723 -0.11428617  0.06857170       0.008
   0.11428617 -0.20571511  0.06857170       0.008
   0.11428617  0.06857170 -0.02285723       0.008
  -0.16000064  0.11428617  0.06857170       0.008
  -0.06857170  0.11428617 -0.02285723       0.008
   0.11428617  0.02285723  0.06857170       0.008
   0.06857170  0.02285723 -0.11428617       0.008
   0.06857170  0.11428617 -0.20571511       0.008
  -0.02285723  0.11428617  0.06857170       0.008
  -0.11428617 -0.02285723  0.06857170       0.008
   0.06857170 -0.11428617 -0.02285723       0.008
  -0.02285723  0.06857170 -0.11428617       0.008
   0.02285723  0.02285723 -0.16000064       0.008
  -0.16000064  0.02285723  0.02285723       0.008
   0.02285723 -0.16000064  0.02285723       0.008
   0.16000064 -0.16000064  0.02285723       0.008
   0.16000064  0.02285723 -0.16000064       0.008
   0.16000064  0.02285723  0.02285723       0.008
  -0.02285723 -0.02285723  0.20571511       0.008
   0.16000064 -0.02285723  0.02285723       0.008
  -0.02285723  0.16000064  0.02285723       0.008
  -0.16000064  0.16000064  0.02285723       0.008
   0.02285723  0.16000064  0.02285723       0.008
   0.02285723  0.16000064 -0.16000064       0.008
   0.06857170  0.06857170  0.06857170       0.008
  -0.06857170  0.06857170  0.06857170       0.008
  -0.06857170 -0.06857170  0.06857170       0.008
   0.06857170 -0.06857170  0.06857170       0.008
   0.20571511 -0.06857170 -0.06857170       0.008
  -0.06857170  0.20571511 -0.06857170       0.008
  -0.06857170 -0.06857170  0.20571511       0.008
  -0.11428617  0.02285723  0.11428617       0.008
   0.16000064 -0.06857170 -0.06857170       0.008
  -0.11428617  0.11428617  0.02285723       0.008
  -0.02285723 -0.11428617  0.11428617       0.008
  -0.11428617 -0.02285723  0.11428617       0.008
   0.06857170  0.06857170 -0.16000064       0.008
  -0.06857170  0.16000064 -0.06857170       0.008
   0.02285723 -0.11428617  0.11428617       0.008
   0.11428617 -0.11428617  0.02285723       0.008

 k-points in reciprocal lattice and weights: pymatgen v2021.2.8.1 with grid density =
   0.12500000  0.12500000  0.12500000       0.008
   0.12500000  0.00000000  0.00000000       0.008
   0.00000000  0.00000000 -0.12500000       0.008
   0.00000000  0.12500000  0.00000000       0.008
   0.37500000  0.12500000  0.12500000       0.008
   0.12500000  0.37500000  0.12500000       0.008
   0.12500000  0.12500000  0.37500000       0.008
   0.12500000  0.00000000 -0.25000000       0.008
   0.37500000  0.25000000  0.25000000       0.008
   0.12500000 -0.25000000  0.00000000       0.008
   0.00000000  0.25000000 -0.12500000       0.008
   0.25000000  0.00000000 -0.12500000       0.008
  -0.25000000 -0.25000000 -0.37500000       0.008
   0.25000000  0.37500000  0.25000000       0.008
   0.00000000  0.12500000 -0.25000000       0.008
  -0.25000000  0.12500000  0.00000000       0.008
  -0.37500000  0.12500000  0.12500000       0.008
   0.12500000 -0.37500000  0.12500000       0.008
   0.12500000  0.12500000 -0.37500000       0.008
   0.12500000  0.00000000  0.50000000       0.008
  -0.37500000  0.50000000  0.50000000       0.008
   0.12500000  0.50000000  0.00000000       0.008
   0.00000000  0.50000000 -0.12500000       0.008
   0.50000000  0.00000000 -0.12500000       0.008
   0.50000000  0.50000000  0.37500000       0.008
   0.50000000 -0.37500000  0.50000000       0.008
   0.00000000  0.12500000  0.50000000       0.008
   0.50000000  0.12500000  0.00000000       0.008
  -0.12500000  0.12500000  0.12500000       0.008
   0.12500000 -0.12500000  0.12500000       0.008
   0.12500000  0.12500000 -0.12500000       0.008
   0.12500000  0.00000000  0.25000000       0.008
  -0.12500000 -0.25000000 -0.25000000       0.008
   0.12500000  0.25000000  0.00000000       0.008
   0.00000000 -0.25000000 -0.12500000       0.008
  -0.25000000  0.00000000 -0.12500000       0.008
   0.25000000  0.25000000  0.12500000       0.008
  -0.25000000 -0.12500000 -0.25000000       0.008
   0.00000000  0.12500000  0.25000000       0.008
   0.25000000  0.12500000  0.00000000       0.008
   0.37500000  0.37500000  0.12500000       0.008
   0.12500000  0.37500000  0.37500000       0.008
   0.37500000  0.12500000  0.37500000       0.008
   0.37500000  0.25000000  0.00000000       0.008
   0.37500000  0.00000000  0.25000000       0.008
   0.12500000 -0.25000000 -0.25000000       0.008
   0.25000000  0.25000000 -0.12500000       0.008
   0.00000000 -0.25000000 -0.37500000       0.008
  -0.25000000  0.00000000 -0.37500000       0.008
   0.25000000  0.37500000  0.00000000       0.008
  -0.25000000  0.12500000 -0.25000000       0.008
   0.00000000  0.37500000  0.25000000       0.008
  -0.37500000  0.37500000  0.12500000       0.008
   0.12500000 -0.37500000  0.37500000       0.008
   0.37500000  0.12500000 -0.37500000       0.008
   0.37500000  0.25000000 -0.25000000       0.008
  -0.37500000  0.25000000  0.50000000       0.008
   0.12500000  0.50000000 -0.25000000       0.008
   0.25000000  0.50000000 -0.12500000       0.008
   0.25000000 -0.25000000 -0.37500000       0.008
   0.50000000 -0.25000000  0.37500000       0.008
   0.50000000 -0.37500000  0.25000000       0.008
  -0.25000000  0.12500000  0.50000000       0.008
  -0.25000000  0.37500000  0.25000000       0.008
  -0.12500000  0.25000000  0.50000000       0.008
  -0.37500000  0.25000000 -0.25000000       0.008
   0.37500000  0.50000000 -0.25000000       0.008
   0.25000000  0.50000000 -0.37500000       0.008
   0.50000000 -0.25000000  0.12500000       0.008
   0.25000000 -0.25000000  0.37500000       0.008
   0.50000000 -0.12500000  0.25000000       0.008
  -0.25000000 -0.37500000  0.25000000       0.008
  -0.25000000  0.37500000  0.50000000       0.008
   0.37500000 -0.12500000 -0.37500000       0.008
  -0.37500000  0.37500000 -0.12500000       0.008
  -0.12500000 -0.37500000  0.37500000       0.008
  -0.12500000  0.37500000  0.12500000       0.008
   0.12500000 -0.12500000  0.37500000       0.008
   0.37500000  0.12500000 -0.12500000       0.008
   0.37500000  0.25000000  0.50000000       0.008
  -0.12500000  0.50000000 -0.25000000       0.008
   0.12500000  0.25000000 -0.25000000       0.008
   0.25000000 -0.25000000 -0.12500000       0.008
   0.50000000 -0.25000000 -0.37500000       0.008
   0.25000000  0.50000000  0.12500000       0.008
  -0.25000000 -0.12500000  0.50000000       0.008
  -0.25000000  0.12500000  0.25000000       0.008
   0.50000000  0.37500000  0.25000000       0.008
  -0.12500000  0.25000000 -0.25000000       0.008
  -0.37500000  0.50000000 -0.25000000       0.008
   0.12500000  0.25000000  0.50000000       0.008
   0.50000000 -0.25000000 -0.12500000       0.008
   0.25000000 -0.25000000  0.12500000       0.008
   0.25000000  0.50000000  0.37500000       0.008
  -0.25000000 -0.12500000  0.25000000       0.008
  -0.25000000 -0.37500000  0.50000000       0.008
   0.50000000  0.12500000  0.25000000       0.008
   0.12500000 -0.12500000 -0.37500000       0.008
  -0.37500000  0.12500000 -0.12500000       0.008
  -0.12500000 -0.37500000  0.12500000       0.008
  -0.37500000 -0.37500000  0.12500000       0.008
   0.12500000 -0.37500000 -0.37500000       0.008
  -0.37500000  0.12500000 -0.37500000       0.008
  -0.37500000  0.50000000  0.00000000       0.008
  -0.37500000  0.00000000  0.50000000       0.008
   0.12500000  0.50000000  0.50000000       0.008
   0.50000000  0.50000000 -0.12500000       0.008
   0.00000000  0.50000000  0.37500000       0.008
   0.50000000  0.00000000  0.37500000       0.008
   0.50000000 -0.37500000  0.00000000       0.008
   0.50000000  0.12500000  0.50000000       0.008
   0.00000000 -0.37500000  0.50000000       0.008
   0.37500000  0.37500000  0.37500000       0.008
   0.37500000  0.00000000  0.00000000       0.008
   0.00000000  0.00000000 -0.37500000       0.008
   0.00000000  0.37500000  0.00000000       0.008
  -0.37500000  0.37500000  0.37500000       0.008
   0.37500000 -0.37500000  0.37500000       0.008
   0.37500000  0.37500000 -0.37500000       0.008
   0.37500000  0.00000000 -0.25000000       0.008
  -0.37500000  0.25000000  0.25000000       0.008
   0.37500000 -0.25000000  0.00000000       0.008
   0.00000000  0.25000000 -0.37500000       0.008
   0.25000000  0.00000000 -0.37500000       0.008
  -0.25000000 -0.25000000  0.37500000       0.008
   0.25000000 -0.37500000  0.25000000       0.008
   0.00000000  0.37500000 -0.25000000       0.008
  -0.25000000  0.37500000  0.00000000       0.008

 position of ions in fractional coordinates (direct lattice) 
   0.78000000  0.77000000  0.73000000
   0.60000000  0.30000000  0.40000000

 position of ions in cartesian coordinates  (Angst):
   4.10154600  4.12888964  4.23826420
   1.91405480  2.73436400  2.46092760



--------------------------------------------------------------------------------------------------------


 k-point  1 :   0.1250 0.1250 0.1250  plane waves:     495
 k-point  2 :   0.1250 0.0000 0.0000  plane waves:     495
 k-point  3 :   0.0000 0.0000-0.1250  plane waves:     495
 k-point  4 :   0.0000 0.1250 0.0000  plane waves:     495
 k-point  5 :   0.3750 0.1250 0.1250  plane waves:     489
 k-point  6 :   0.1250 0.3750 0.1250  plane waves:     489
 k-point  7 :   0.1250 0.1250 0.3750  plane waves:     489
 k-point  8 :   0.1250 0.0000-0.2500  plane waves:     489
 k-point  9 :   0.3750 0.2500 0.2500  plane waves:     489
 k-point 10 :   0.1250-0.2500 0.0000  plane waves:     489
 k-point 11 :   0.0000 0.2500-0.1250  plane waves:     489
 k-point 12 :   0.2500 0.0000-0.1250  plane waves:     489
 k-point 13 :  -0.2500-0.2500-0.3750  plane waves:     489
 k-point 14 :   0.2500 0.3750 0.2500  plane waves:     489
 k-point 15 :   0.0000 0.1250-0.2500  plane waves:     489
 k-point 16 :  -0.2500 0.1250 0.0000  plane waves:     489
 k-point 17 :  -0.3750 0.1250 0.1250  plane waves:     475
 k-point 18 :   0.1250-0.3750 0.1250  plane waves:     475
 k-point 19 :   0.1250 0.1250-0.3750  plane waves:     475
 k-point 20 :   0.1250 0.0000 0.5000  plane waves:     475
 k-point 21 :  -0.3750 0.5000 0.5000  plane waves:     475
 k-point 22 :   0.1250 0.5000 0.0000  plane waves:     475
 k-point 23 :   0.0000 0.5000-0.1250  plane waves:     475
 k-point 24 :   0.5000 0.0000-0.1250  plane waves:     475
 k-point 25 :   0.5000 0.5000 0.3750  plane waves:     475
 k-point 26 :   0.5000-0.3750 0.5000  plane waves:     475
 k-point 27 :   0.0000 0.1250 0.5000  plane waves:     475
 k-point 28 :   0.5000 0.1250 0.0000  plane waves:     475
 k-point 29 :  -0.1250 0.1250 0.1250  plane waves:     489
 k-point 30 :   0.1250-0.1250 0.1250  plane waves:     489
 k-point 31 :   0.1250 0.1250-0.1250  plane waves:     489
 k-point 32 :   0.1250 0.0000 0.2500  plane waves:     489
 k-point 33 :  -0.1250-0.2500-0.2500  plane waves:     489
 k-point 34 :   0.1250 0.2500 0.0000  plane waves:     489
 k-point 35 :   0.0000-0.2500-0.1250  plane waves:     489
 k-point 36 :  -0.2500 0.0000-0.1250  plane waves:     489
 k-point 37 :   0.2500 0.2500 0.1250  plane waves:     489
 k-point 38 :  -0.2500-0.1250-0.2500  plane waves:     489
 k-point 39 :   0.0000 0.1250 0.2500  plane waves:     489
 k-point 40 :   0.2500 0.1250 0.0000  plane waves:     489
 k-point 41 :   0.3750 0.3750 0.1250  plane waves:     482
 k-point 42 :   0.1250 0.3750 0.3750  plane waves:     482
 k-point 43 :   0.3750 0.1250 0.3750  plane waves:     482
 k-point 44 :   0.3750 0.2500 0.0000  plane waves:     482
 k-point 45 :   0.3750 0.0000 0.2500  plane waves:     482
 k-point 46 :   0.1250-0.2500-0.2500  plane waves:     482
 k-point 47 :   0.2500 0.2500-0.1250  plane waves:     482
 k-point 48 :   0.0000-0.2500-0.3750  plane waves:     482
 k-point 49 :  -0.2500 0.0000-0.3750  plane waves:     482
 k-point 50 :   0.2500 0.3750 0.0000  plane waves:     482
 k-point 51 :  -0.2500 0.1250-0.2500  plane waves:     482
 k-point 52 :   0.0000 0.3750 0.2500  plane waves:     482
 k-point 53 :  -0.3750 0.3750 0.1250  plane waves:     479
 k-point 54 :   0.1250-0.3750 0.3750  plane waves:     479
 k-point 55 :   0.3750 0.1250-0.3750  plane waves:     479
 k-point 56 :   0.3750 0.2500-0.2500  plane waves:     479
 k-point 57 :  -0.3750 0.2500 0.5000  plane waves:     479
 k-point 58 :   0.1250 0.5000-0.2500  plane waves:     479
 k-point 59 :   0.2500 0.5000-0.1250  plane waves:     479
 k-point 60 :   0.2500-0.2500-0.3750  plane waves:     479
 k-point 61 :   0.5000-0.2500 0.3750  plane waves:     479
 k-point 62 :   0.5000-0.3750 0.2500  plane waves:     479
 k-point 63 :  -0.2500 0.1250 0.5000  plane waves:     479
 k-point 64 :  -0.2500 0.3750 0.2500  plane waves:     479
 k-point 65 :  -0.1250 0.2500 0.5000  plane waves:     479
 k-point 66 :  -0.3750 0.2500-0.2500  plane waves:     479
 k-point 67 :   0.3750 0.5000-0.2500  plane waves:     479
 k-point 68 :   0.2500 0.5000-0.3750  plane waves:     479
 k-point 69 :   0.5000-0.2500 0.1250  plane waves:     479
 k-point 70 :   0.2500-0.2500 0.3750  plane waves:     479
 k-point 71 :   0.5000-0.1250 0.2500  plane waves:     479
 k-point 72 :  -0.2500-0.3750 0.2500  plane waves:     479
 k-point 73 :  -0.2500 0.3750 0.5000  plane waves:     479
 k-point 74 :   0.3750-0.1250-0.3750  plane waves:     479
 k-point 75 :  -0.3750 0.3750-0.1250  plane waves:     479
 k-point 76 :  -0.1250-0.3750 0.3750  plane waves:     479
 k-point 77 :  -0.1250 0.3750 0.1250  plane waves:     482
 k-point 78 :   0.1250-0.1250 0.3750  plane waves:     482
 k-point 79 :   0.3750 0.1250-0.1250  plane waves:     482
 k-point 80 :   0.3750 0.2500 0.5000  plane waves:     482
 k-point 81 :  -0.1250 0.5000-0.2500  plane waves:     482
 k-point 82 :   0.1250 0.2500-0.2500  plane waves:     482
 k-point 83 :   0.2500-0.2500-0.1250  plane waves:     482
 k-point 84 :   0.5000-0.2500-0.3750  plane waves:     482
 k-point 85 :   0.2500 0.5000 0.1250  plane waves:     482
 k-point 86 :  -0.2500-0.1250 0.5000  plane waves:     482
 k-point 87 :  -0.2500 0.1250 0.2500  plane waves:     482
 k-point 88 :   0.5000 0.3750 0.2500  plane waves:     482
 k-point 89 :  -0.1250 0.2500-0.2500  plane waves:     482
 k-point 90 :  -0.3750 0.5000-0.2500  plane waves:     482
 k-point 91 :   0.1250 0.2500 0.5000  plane waves:     482
 k-point 92 :   0.5000-0.2500-0.1250  plane waves:     482
 k-point 93 :   0.2500-0.2500 0.1250  plane waves:     482
 k-point 94 :   0.2500 0.5000 0.3750  plane waves:     482
 k-point 95 :  -0.2500-0.1250 0.2500  plane waves:     482
 k-point 96 :  -0.2500-0.3750 0.5000  plane waves:     482
 k-point 97 :   0.5000 0.1250 0.2500  plane waves:     482
 k-point 98 :   0.1250-0.1250-0.3750  plane waves:     482
 k-point 99 :  -0.3750 0.1250-0.1250  plane waves:     482
 k-point ** :  -0.1250-0.3750 0.1250  plane waves:     482
 k-point ** :  -0.3750-0.3750 0.1250  plane waves:     476
 k-point ** :   0.1250-0.3750-0.3750  plane waves:     476
 k-point ** :  -0.3750 0.1250-0.3750  plane waves:     476
 k-point ** :  -0.3750 0.5000 0.0000  plane waves:     476
 k-point ** :  -0.3750 0.0000 0.5000  plane waves:     476
 k-point ** :   0.1250 0.5000 0.5000  plane waves:     476
 k-point ** :   0.5000 0.5000-0.1250  plane waves:     476
 k-point ** :   0.0000 0.5000 0.3750  plane waves:     476
 k-point ** :   0.5000 0.0000 0.3750  plane waves:     476
 k-point ** :   0.5000-0.3750 0.0000  plane waves:     476
 k-point ** :   0.5000 0.1250 0.5000  plane waves:     476
 k-point ** :   0.0000-0.3750 0.5000  plane waves:     476
 k-point ** :   0.3750 0.3750 0.3750  plane waves:     483
 k-point ** :   0.3750 0.0000 0.0000  plane waves:     483
 k-point ** :   0.0000 0.0000-0.3750  plane waves:     483
 k-point ** :   0.0000 0.3750 0.0000  plane waves:     483
 k-point ** :  -0.3750 0.3750 0.3750  plane waves:     481
 k-point ** :   0.3750-0.3750 0.3750  plane waves:     481
 k-point ** :   0.3750 0.3750-0.3750  plane waves:     481
 k-point ** :   0.3750 0.0000-0.2500  plane waves:     481
 k-point ** :  -0.3750 0.2500 0.2500  plane waves:     481
 k-point ** :   0.3750-0.2500 0.0000  plane waves:     481
 k-point ** :   0.0000 0.2500-0.3750  plane waves:     481
 k-point ** :   0.2500 0.0000-0.3750  plane waves:     481
 k-point ** :  -0.2500-0.2500 0.3750  plane waves:     481
 k-point ** :   0.2500-0.3750 0.2500  plane waves:     481
 k-point ** :   0.0000 0.3750-0.2500  plane waves:     481
 k-point ** :  -0.2500 0.3750 0.0000  plane waves:     481

 maximum and minimum number of plane-waves per node :       495      475

 maximum number of plane-waves:       495
 maximum index in each direction: 
   IXMAX=    5   IYMAX=    5   IZMAX=    5
   IXMIN=   -5   IYMIN=   -5   IZMIN=   -5


 serial   3D FFT for wavefunctions
 parallel 3D FFT for charge:
    minimum data exchange during FFTs selected (reduces bandwidth)


 total amount of memory used by VASP MPI-rank0    49064. kBytes
=======================================================================

   base      :      30000. kBytes
   nonlr-proj:        752. kBytes
   fftplans  :       3916. kBytes
   grid      :       6018. kBytes
   one-center:          6. kBytes
   wavefun   :       8372. kBytes

     INWAV:  cpu time    0.0000: real time    0.0001
 Broyden mixing: mesh for mixing (old mesh)
   NGX = 11   NGY = 11   NGZ = 11
  (NGX  = 48   NGY  = 48   NGZ  = 48)
  gives a total of   1331 points

 initial charge density was supplied:
 charge density of overlapping atoms calculated
 number of electron       8.0000000 magnetization 
 keeping initial charge density in first step


--------------------------------------------------------------------------------------------------------


 Maximum index for non-local projection operator         4280
 Maximum index for augmentation-charges        10976 (set IRDMAX)


--------------------------------------------------------------------------------------------------------


 First call to EWALD:  gamma=   0.514
 Maximum number of real-space cells 3x 3x 3
 Maximum number of reciprocal cells 3x 3x 3

    FEWALD:  cpu time    0.0000: real time    0.0006


--------------------------------------- Iteration      1(   1)  ---------------------------------------


    POTLOK:  cpu time    0.0625: real time    0.0488
    SETDIJ:  cpu time    0.1094: real time    0.1150
     EDDAV:  cpu time    1.0938: real time    1.1088
       DOS:  cpu time    0.0000: real time    0.0012
    --------------------------------------------
      LOOP:  cpu time    1.2656: real time    1.2739

 eigenvalue-minimisations  :  2056
 total energy-change (2. order) : 0.6422089E+01  (-0.2553182E+03)
 number of electron       8.0000000 magnetization 
 augmentation part        8.0000000 magnetization 

 Free energy of the ion-electron system (eV)
  ---------------------------------------------------
  alpha Z        PSCENC =         3.29318037
  Ewald energy   TEWEN  =      -218.56496444
  -Hartree energ DENC   =       -12.72510621
  -exchange      EXHF   =         0.00000000
  -V(xc)+E(xc)   XCENC  =       -18.63755638
  PAW double counting   =       176.24759923     -141.06103558
  entropy T*S    EENTRO =        -0.00073530
  eigenvalues    EBANDS =        11.74102155
  atomic energy  EATOM  =       206.12968587
  Solvation  Ediel_sol  =         0.00000000
  ---------------------------------------------------
  free energy    TOTEN  =         6.42208910 eV

  energy without entropy =        6.42282440  energy(sigma->0) =        6.42245675


--------------------------------------------------------------------------------------------------------




--------------------------------------- Iteration      1(   2)  ---------------------------------------


     EDDAV:  cpu time    1.5312: real time    1.5386
       DOS:  cpu time    0.0000: real time    0.0013
    --------------------------------------------
      LOOP:  cpu time    1.5312: real time    1.5399

 eigenvalue-minimisations  :  3168
 total energy-change (2. order) :-0.1340566E+02  (-0.1316834E+02)
 number of electron       8.0000000 magnetization 
 augmentation part        8.0000000 magnetization 

 Free energy of the ion-electron system (eV)
  ---------------------------------------------------
  alpha Z        PSCENC =         3.29318037
  Ewald energy   TEWEN  =      -218.56496444
  -Hartree energ DENC   =       -12.72510621
  -exchange      EXHF   =         0.00000000
  -V(xc)+E(xc)   XCENC  =       -18.63755638
  PAW double counting   =       176.24759923     -141.06103558
  entropy T*S    EENTRO =        -0.00116426
  eigenvalues    EBANDS =        -1.66421068
  atomic energy  EATOM  =       206.12968587
  Solvation  Ediel_sol  =         0.00000000
  ---------------------------------------------------
  free energy    TOTEN  =        -6.98357209 eV

  energy without entropy =       -6.98240783  energy(sigma->0) =       -6.98298996


--------------------------------------------------------------------------------------------------------




--------------------------------------- Iteration      1(   3)  ---------------------------------------


     EDDAV:  cpu time    1.3438: real time    1.3299
       DOS:  cpu time    0.0000: real time    0.0013
    --------------------------------------------
      LOOP:  cpu time    1.3438: real time    1.3312

 eigenvalue-minimisations  :  2632
 total energy-change (2. order) :-0.1870794E+00  (-0.1865617E+00)
 number of electron       8.0000000 magnetization 
 augmentation part        8.0000000 magnetization 

 Free energy of the ion-electron system (eV)
  ---------------------------------------------------
  alpha Z        PSCENC =         3.29318037
  Ewald energy   TEWEN  =      -218.56496444
  -Hartree energ DENC   =       -12.72510621
  -exchange      EXHF   =         0.00000000
  -V(xc)+E(xc)   XCENC  =       -18.63755638
  PAW double counting   =       176.24759923     -141.06103558
  entropy T*S    EENTRO =        -0.00115187
  eigenvalues    EBANDS =        -1.85130247
  atomic energy  EATOM  =       206.12968587
  Solvation  Ediel_sol  =         0.00000000
  ---------------------------------------------------
  free energy    TOTEN  =        -7.17065149 eV

  energy without entropy =       -7.16949962  energy(sigma->0) =       -7.17007556


--------------------------------------------------------------------------------------------------------




--------------------------------------- Iteration      1(   4)  ---------------------------------------


     EDDAV:  cpu time    1.6406: real time    1.6431
       DOS:  cpu time    0.0000: real time    0.0013
    --------------------------------------------
      LOOP:  cpu time    1.6406: real time    1.6444

 eigenvalue-minimisations  :  3440
 total energy-change (2. order) :-0.7340585E-03  (-0.7340018E-03)
 number of electron       8.0000000 magnetization 
 augmentation part        8.0000000 magnetization 

 Free energy of the ion-electron system (eV)
  ---------------------------------------------------
  alpha Z        PSCENC =         3.29318037
  Ewald energy   TEWEN  =      -218.56496444
  -Hartree energ DENC   =       -12.72510621
  -exchange      EXHF   =         0.00000000
  -V(xc)+E(xc)   XCENC  =       -18.63755638
  PAW double counting   =       176.24759923     -141.06103558
  entropy T*S    EENTRO =        -0.00114604
  eigenvalues    EBANDS =        -1.85204236
  atomic energy  EATOM  =       206.12968587
  Solvation  Ediel_sol  =         0.00000000
  ---------------------------------------------------
  free energy    TOTEN  =        -7.17138555 eV

  energy without entropy =       -7.17023951  energy(sigma->0) =       -7.17081253


--------------------------------------------------------------------------------------------------------




--------------------------------------- Iteration      1(   5)  ---------------------------------------


     EDDAV:  cpu time    1.3438: real time    1.3452
       DOS:  cpu time    0.0000: real time    0.0013
    CHARGE:  cpu time    0.0625: real time    0.0663
    MIXING:  cpu time    0.0000: real time    0.0012
    --------------------------------------------
      LOOP:  cpu time    1.4062: real time    1.4140

 eigenvalue-minimisations  :  2696
 total energy-change (2. order) :-0.4402720E-06  (-0.4399355E-06)
 number of electron       8.0000000 magnetization 
 augmentation part       -0.5113996 magnetization 

 Broyden mixing:
  rms(total) = 0.64339E+00    rms(broyden)= 0.64338E+00
  rms(prec ) = 0.14206E+01
  weight for this iteration     100.00

 Free energy of the ion-electron system (eV)
  ---------------------------------------------------
  alpha Z        PSCENC =         3.29318037
  Ewald energy   TEWEN  =      -218.56496444
  -Hartree energ DENC   =       -12.72510621
  -exchange      EXHF   =         0.00000000
  -V(xc)+E(xc)   XCENC  =       -18.63755638
  PAW double counting   =       176.24759923     -141.06103558
  entropy T*S    EENTRO =        -0.00114605
  eigenvalues    EBANDS =        -1.85204279
  atomic energy  EATOM  =       206.12968587
  Solvation  Ediel_sol  =         0.00000000
  ---------------------------------------------------
  free energy    TOTEN  =        -7.17138599 eV

  energy without entropy =       -7.17023995  energy(sigma->0) =       -7.17081297


--------------------------------------------------------------------------------------------------------




--------------------------------------- Iteration      1(   6)  ---------------------------------------


    POTLOK:  cpu time    0.0469: real time    0.0447
    SETDIJ:  cpu time    0.1094: real time    0.1134
     EDDAV:  cpu time    1.2656: real time    1.2581
       DOS:  cpu time    0.0000: real time    0.0015
    CHARGE:  cpu time    0.0625: real time    0.0650
    MIXING:  cpu time    0.0000: real time    0.0014
    --------------------------------------------
      LOOP:  cpu time    1.4844: real time    1.4842

 eigenvalue-minimisations  :  2440
 total energy-change (2. order) : 0.5645411E+00  (-0.1182777E+00)
 number of electron       8.0000000 magnetization 
 augmentation part       -0.5061743 magnetization 

 Broyden mixing:
  rms(total) = 0.34218E+00    rms(broyden)= 0.34218E+00
  rms(prec ) = 0.63094E+00
  weight for this iteration     100.00

 eigenvalues of (default mixing * dielectric matrix)
  average eigenvalue GAMMA=   1.9947
  1.9947

 Free energy of the ion-electron system (eV)
  ---------------------------------------------------
  alpha Z        PSCENC =         3.29318037
  Ewald energy   TEWEN  =      -218.56496444
  -Hartree energ DENC   =       -14.95024814
  -exchange      EXHF   =         0.00000000
  -V(xc)+E(xc)   XCENC  =       -18.35118109
  PAW double counting   =       435.03257632     -400.05344109
  entropy T*S    EENTRO =        -0.00120487
  eigenvalues    EBANDS =         0.85875218
  atomic energy  EATOM  =       206.12968587
  Solvation  Ediel_sol  =         0.00000000
  ---------------------------------------------------
  free energy    TOTEN  =        -6.60684488 eV

  energy without entropy =       -6.60564002  energy(sigma->0) =       -6.60624245


--------------------------------------------------------------------------------------------------------




--------------------------------------- Iteration      1(   7)  ---------------------------------------


    POTLOK:  cpu time    0.0312: real time    0.0443
    SETDIJ:  cpu time    0.1250: real time    0.1165
     EDDAV:  cpu time    1.4688: real time    1.4755
       DOS:  cpu time    0.0000: real time    0.0013
    CHARGE:  cpu time    0.0625: real time    0.0648
    MIXING:  cpu time    0.0000: real time    0.0015
    --------------------------------------------
      LOOP:  cpu time    1.6875: real time    1.7038

 eigenvalue-minimisations  :  3008
 total energy-change (2. order) : 0.1005467E+00  (-0.4508525E-01)
 number of electron       8.0000000 magnetization 
 augmentation part       -0.4988176 magnetization 

 Broyden mixing:
  rms(total) = 0.14739E+00    rms(broyden)= 0.14739E+00
  rms(prec ) = 0.20190E+00
  weight for this iteration     100.00

 eigenvalues of (default mixing * dielectric matrix)
  average eigenvalue GAMMA=   1.6504
  0.9033  2.3976

 Free energy of the ion-electron system (eV)
  ---------------------------------------------------
  alpha Z        PSCENC =         3.29318037
  Ewald energy   TEWEN  =      -218.56496444
  -Hartree energ DENC   =       -16.74482447
  -exchange      EXHF   =         0.00000000
  -V(xc)+E(xc)   XCENC  =       -18.09308895
  PAW double counting   =       819.54636713     -784.74031895
  entropy T*S    EENTRO =        -0.00103916
  eigenvalues    EBANDS =         2.66870438
  atomic energy  EATOM  =       206.12968587
  Solvation  Ediel_sol  =         0.00000000
  ---------------------------------------------------
  free energy    TOTEN  =        -6.50629822 eV

  energy without entropy =       -6.50525907  energy(sigma->0) =       -6.50577865


--------------------------------------------------------------------------------------------------------




--------------------------------------- Iteration      1(   8)  ---------------------------------------


    POTLOK:  cpu time    0.0469: real time    0.0454
    SETDIJ:  cpu time    0.1250: real time    0.1175
     EDDAV:  cpu time    1.2188: real time    1.2203
       DOS:  cpu time    0.0000: real time    0.0012
    CHARGE:  cpu time    0.0625: real time    0.0666
    MIXING:  cpu time    0.0000: real time    0.0014
    --------------------------------------------
      LOOP:  cpu time    1.4531: real time    1.4523

 eigenvalue-minimisations  :  2360
 total energy-change (2. order) : 0.4404647E-02  (-0.2465468E-02)
 number of electron       8.0000000 magnetization 
 augmentation part       -0.4995571 magnetization 

 Broyden mixing:
  rms(total) = 0.28180E-01    rms(broyden)= 0.28180E-01
  rms(prec ) = 0.36827E-01
  weight for this iteration     100.00

 eigenvalues of (default mixing * dielectric matrix)
  average eigenvalue GAMMA=   1.5582
  2.2475  1.2135  1.2135

 Free energy of the ion-electron system (eV)
  ---------------------------------------------------
  alpha Z        PSCENC =         3.29318037
  Ewald energy   TEWEN  =      -218.56496444
  -Hartree energ DENC   =       -16.98165245
  -exchange      EXHF   =         0.00000000
  -V(xc)+E(xc)   XCENC  =       -18.01637839
  PAW double counting   =      1078.98991895    -1044.22360371
  entropy T*S    EENTRO =        -0.00107672
  eigenvalues    EBANDS =         2.87299696
  atomic energy  EATOM  =       206.12968587
  Solvation  Ediel_sol  =         0.00000000
  ---------------------------------------------------
  free energy    TOTEN  =        -6.50189358 eV

  energy without entropy =       -6.50081686  energy(sigma->0) =       -6.50135522


--------------------------------------------------------------------------------------------------------




--------------------------------------- Iteration      1(   9)  ---------------------------------------


    POTLOK:  cpu time    0.0469: real time    0.0455
    SETDIJ:  cpu time    0.1250: real time    0.1156
     EDDAV:  cpu time    1.3125: real time    1.3150
       DOS:  cpu time    0.0000: real time    0.0013
    --------------------------------------------
      LOOP:  cpu time    1.4844: real time    1.4774

 eigenvalue-minimisations  :  2608
 total energy-change (2. order) :-0.1957720E-03  (-0.1320638E-03)
 number of electron       8.0000000 magnetization 
 augmentation part       -0.4995571 magnetization 

 Free energy of the ion-electron system (eV)
  ---------------------------------------------------
  alpha Z        PSCENC =         3.29318037
  Ewald energy   TEWEN  =      -218.56496444
  -Hartree energ DENC   =       -17.00839003
  -exchange      EXHF   =         0.00000000
  -V(xc)+E(xc)   XCENC  =       -18.00580093
  PAW double counting   =      1105.12540785    -1070.36273319
  entropy T*S    EENTRO =        -0.00106854
  eigenvalues    EBANDS =         2.89259371
  atomic energy  EATOM  =       206.12968587
  Solvation  Ediel_sol  =         0.00000000
  ---------------------------------------------------
  free energy    TOTEN  =        -6.50208935 eV

  energy without entropy =       -6.50102081  energy(sigma->0) =       -6.50155508


--------------------------------------------------------------------------------------------------------




 average (electrostatic) potential at core
  the test charge radii are     0.9892
  (the norm of the test charge is              1.0000)
       1 -84.0132       2 -84.0132



 E-fermi :   5.6142     XC(G=0):  -9.3899     alpha+bet :-11.7317


 k-point     1 :       0.1250    0.1250    0.1250
  band No.  band energies     occupation 
      1      -6.5294      2.00000
      2       2.6279      2.00000
      3       4.6890      2.00000
      4       6.2401      0.00000
      5       6.8796      0.00000
      6       7.5332      0.00000
      7      10.2409      0.00000
      8      11.0155      0.00000

 k-point     2 :       0.1250    0.0000    0.0000
  band No.  band energies     occupation 
      1      -6.5181      2.00000
      2       2.5709      2.00000
      3       4.4211      2.00000
      4       6.0506      0.00000
      5       6.9530      0.00000
      6       8.9958      0.00000
      7       9.7945      0.00000
      8      10.8716      0.00000

 k-point     3 :       0.0000    0.0000   -0.1250
  band No.  band energies     occupation 
      1      -6.4948      2.00000
      2       2.0588      2.00000
      3       5.5818      1.64073
      4       5.9609      0.00000
      5       6.4917      0.00000
      6       8.9300      0.00000
      7       9.3511      0.00000
      8      10.9170      0.00000

 k-point     4 :       0.0000    0.1250    0.0000
  band No.  band energies     occupation 
      1      -6.4840      2.00000
      2       1.8987      2.00000
      3       5.4731      1.99993
      4       5.7833      0.00000
      5       7.7891      0.00000
      6       8.6027      0.00000
      7       9.1318      0.00000
      8      10.4908      0.00000

 k-point     5 :       0.3750    0.1250    0.1250
  band No.  band energies     occupation 
      1      -5.7295      2.00000
      2       1.4444      2.00000
      3       2.7686      2.00000
      4       4.1241      2.00000
      5       6.7523      0.00000
      6       9.3598      0.00000
      7      10.8716      0.00000
      8      11.0468      0.00000

 k-point     6 :       0.1250    0.3750    0.1250
  band No.  band energies     occupation 
      1      -5.5110      2.00000
      2      -0.1967      2.00000
      3       3.7364      2.00000
      4       4.8094      2.00000
      5       8.1936      0.00000
      6       8.8896      0.00000
      7       9.7086      0.00000
      8      10.8481      0.00000

 k-point     7 :       0.1250    0.1250    0.3750
  band No.  band energies     occupation 
      1      -5.5862      2.00000
      2       0.1913      2.00000
      3       3.7100      2.00000
      4       4.9432      2.00000
      5       6.3898      0.00000
      6       8.8295      0.00000
      7      10.3946      0.00000
      8      11.6774      0.00000

 k-point     8 :       0.1250    0.0000   -0.2500
  band No.  band energies     occupation 
      1      -5.5588      2.00000
      2       0.1686      2.00000
      3       3.0621      2.00000
      4       5.9486      0.00000
      5       6.3934      0.00000
      6       8.3289      0.00000
      7      10.5048      0.00000
      8      11.7097      0.00000

 k-point     9 :       0.3750    0.2500    0.2500
  band No.  band energies     occupation 
      1      -5.7720      2.00000
      2       1.8777      2.00000
      3       2.7376      2.00000
      4       3.8867      2.00000
      5       6.7345      0.00000
      6       8.5775      0.00000
      7      10.4630      0.00000
      8      11.5030      0.00000

 k-point    10 :       0.1250   -0.2500    0.0000
  band No.  band energies     occupation 
      1      -5.4693      2.00000
      2      -0.3207      2.00000
      3       3.3075      2.00000
      4       5.5747      1.73607
      5       7.6184      0.00000
      6       9.4581      0.00000
      7       9.6112      0.00000
      8      11.4148      0.00000

 k-point    11 :       0.0000    0.2500   -0.1250
  band No.  band energies     occupation 
      1      -5.3703      2.00000
      2      -0.7425      2.00000
      3       3.6633      2.00000
      4       5.8159      0.00000
      5       7.7942      0.00000
      6       8.4972      0.00000
      7      10.5145      0.00000
      8      11.1418      0.00000

 k-point    12 :       0.2500    0.0000   -0.1250
  band No.  band energies     occupation 
      1      -5.6570      2.00000
      2       1.4258      2.00000
      3       1.6783      2.00000
      4       5.9761      0.00000
      5       6.5782      0.00000
      6       8.3790      0.00000
      7      10.8398      0.00000
      8      10.9276      0.00000

 k-point    13 :      -0.2500   -0.2500   -0.3750
  band No.  band energies     occupation 
      1      -5.7264      2.00000
      2       1.5701      2.00000
      3       2.1959      2.00000
      4       5.4109      2.00000
      5       6.2943      0.00000
      6       8.1633      0.00000
      7      10.4126      0.00000
      8      11.2532      0.00000

 k-point    14 :       0.2500    0.3750    0.2500
  band No.  band energies     occupation 
      1      -5.7025      2.00000
      2       1.2678      2.00000
      3       2.2659      2.00000
      4       5.4791      1.99987
      5       7.1979      0.00000
      6       7.7749      0.00000
      7       9.8746      0.00000
      8      11.2872      0.00000

 k-point    15 :       0.0000    0.1250   -0.2500
  band No.  band energies     occupation 
      1      -5.4248      2.00000
      2      -0.5259      2.00000
      3       3.5835      2.00000
      4       6.0966      0.00000
      5       7.2219      0.00000
      6       7.7461      0.00000
      7      10.7748      0.00000
      8      11.6506      0.00000

 k-point    16 :      -0.2500    0.1250    0.0000
  band No.  band energies     occupation 
      1      -5.6207      2.00000
      2       0.7389      2.00000
      3       2.2625      2.00000
      4       5.8481      0.00000
      5       7.2037      0.00000
      6       8.3772      0.00000
      7      10.3673      0.00000
      8      11.4825      0.00000

 k-point    17 :      -0.3750    0.1250    0.1250
  band No.  band energies     occupation 
      1      -4.9530      2.00000
      2      -0.3052      2.00000
      3       2.2163      2.00000
      4       4.5486      2.00000
      5       5.9482      0.00000
      6       9.0242      0.00000
      7      10.7515      0.00000
      8      12.3147      0.00000

 k-point    18 :       0.1250   -0.3750    0.1250
  band No.  band energies     occupation 
      1      -3.9650      2.00000
      2      -2.6891      2.00000
      3       3.7123      2.00000
      4       4.3978      2.00000
      5       7.6529      0.00000
      6       8.0948      0.00000
      7      11.4792      0.00000
      8      12.0616      0.00000

 k-point    19 :       0.1250    0.1250   -0.3750
  band No.  band energies     occupation 
      1      -4.4244      2.00000
      2      -1.9152      2.00000
      3       3.6099      2.00000
      4       4.7963      2.00000
      5       5.9455      0.00000
      6       8.0004      0.00000
      7      11.5371      0.00000
      8      12.8041      0.00000

 k-point    20 :       0.1250    0.0000    0.5000
  band No.  band energies     occupation 
      1      -4.4125      2.00000
      2      -1.9222      2.00000
      3       3.2166      2.00000
      4       5.3193      2.00000
      5       6.2639      0.00000
      6       7.5513      0.00000
      7      11.5927      0.00000
      8      12.9069      0.00000

 k-point    21 :      -0.3750    0.5000    0.5000
  band No.  band energies     occupation 
      1      -5.1195      2.00000
      2       0.4065      2.00000
      3       2.1805      2.00000
      4       4.1253      2.00000
      5       5.9058      0.00000
      6       8.4871      0.00000
      7      10.2738      0.00000
      8      12.2273      0.00000

 k-point    22 :       0.1250    0.5000    0.0000
  band No.  band energies     occupation 
      1      -4.0116      2.00000
      2      -2.6135      2.00000
      3       3.3965      2.00000
      4       4.8078      2.00000
      5       7.1487      0.00000
      6       8.7319      0.00000
      7      11.0174      0.00000
      8      11.9124      0.00000

 k-point    23 :       0.0000    0.5000   -0.1250
  band No.  band energies     occupation 
      1      -4.1208      2.00000
      2      -2.4277      2.00000
      3       3.1423      2.00000
      4       4.7378      2.00000
      5       7.8940      0.00000
      6       8.9840      0.00000
      7      10.2263      0.00000
      8      10.8621      0.00000

 k-point    24 :       0.5000    0.0000   -0.1250
  band No.  band energies     occupation 
      1      -4.9204      2.00000
      2      -0.3134      2.00000
      3       1.7188      2.00000
      4       5.3554      2.00000
      5       6.7834      0.00000
      6       7.5984      0.00000
      7      10.6828      0.00000
      8      12.4787      0.00000

 k-point    25 :       0.5000    0.5000    0.3750
  band No.  band energies     occupation 
      1      -5.0974      2.00000
      2       0.4295      2.00000
      3       1.6975      2.00000
      4       5.0585      2.00000
      5       5.9787      0.00000
      6       7.7686      0.00000
      7      10.2058      0.00000
      8      12.1645      0.00000

 k-point    26 :       0.5000   -0.3750    0.5000
  band No.  band energies     occupation 
      1      -5.0903      2.00000
      2       0.4756      2.00000
      3       1.5496      2.00000
      4       4.7359      2.00000
      5       7.2996      0.00000
      6       7.4892      0.00000
      7       9.1970      0.00000
      8      12.2239      0.00000

 k-point    27 :       0.0000    0.1250    0.5000
  band No.  band energies     occupation 
      1      -4.4928      2.00000
      2      -1.7141      2.00000
      3       2.8827      2.00000
      4       4.9454      2.00000
      5       7.1074      0.00000
      6       8.1117      0.00000
      7      10.0297      0.00000
      8      11.9085      0.00000

 k-point    28 :       0.5000    0.1250    0.0000
  band No.  band energies     occupation 
      1      -4.9323      2.00000
      2      -0.2121      2.00000
      3       1.6119      2.00000
      4       5.1006      2.00000
      5       7.2127      0.00000
      6       7.8983      0.00000
      7       9.8202      0.00000
      8      12.4282      0.00000

 k-point    29 :      -0.1250    0.1250    0.1250
  band No.  band energies     occupation 
      1      -6.0571      2.00000
      2       1.8857      2.00000
      3       2.9998      2.00000
      4       5.5098      1.99687
      5       6.0091      0.00000
      6       9.7920      0.00000
      7      10.6942      0.00000
      8      11.7801      0.00000

 k-point    30 :       0.1250   -0.1250    0.1250
  band No.  band energies     occupation 
      1      -5.9434      2.00000
      2       0.5150      2.00000
      3       4.2751      2.00000
      4       5.8158      0.00000
      5       7.3963      0.00000
      6       8.5340      0.00000
      7      10.0317      0.00000
      8      10.6463      0.00000

 k-point    31 :       0.1250    0.1250   -0.1250
  band No.  band energies     occupation 
      1      -5.9781      2.00000
      2       0.7669      2.00000
      3       4.4338      2.00000
      4       5.7853      0.00000
      5       6.2093      0.00000
      6       8.4397      0.00000
      7      10.3565      0.00000
      8      11.1189      0.00000

 k-point    32 :       0.1250    0.0000    0.2500
  band No.  band energies     occupation 
      1      -5.9800      2.00000
      2       0.7425      2.00000
      3       4.6145      2.00000
      4       5.2484      2.00000
      5       7.2156      0.00000
      6       8.0388      0.00000
      7      10.2331      0.00000
      8      10.5059      0.00000

 k-point    33 :      -0.1250   -0.2500   -0.2500
  band No.  band energies     occupation 
      1      -6.0921      2.00000
      2       2.1006      2.00000
      3       3.3898      2.00000
      4       4.8590      2.00000
      5       6.1044      0.00000
      6       9.0504      0.00000
      7      10.7989      0.00000
      8      11.0352      0.00000

 k-point    34 :       0.1250    0.2500    0.0000
  band No.  band energies     occupation 
      1      -5.9638      2.00000
      2       0.6203      2.00000
      3       4.6973      2.00000
      4       5.2551      2.00000
      5       7.1636      0.00000
      6       8.3306      0.00000
      7      10.2737      0.00000
      8      10.6850      0.00000

 k-point    35 :       0.0000   -0.2500   -0.1250
  band No.  band energies     occupation 
      1      -6.0130      2.00000
      2       1.1089      2.00000
      3       4.1326      2.00000
      4       4.7706      2.00000
      5       7.0107      0.00000
      6       9.4632      0.00000
      7      10.2806      0.00000
      8      11.2929      0.00000

 k-point    36 :      -0.2500    0.0000   -0.1250
  band No.  band energies     occupation 
      1      -6.0549      2.00000
      2       1.5883      2.00000
      3       3.3059      2.00000
      4       5.3690      2.00000
      5       7.7447      0.00000
      6       8.0859      0.00000
      7       9.6420      0.00000
      8      11.2813      0.00000

 k-point    37 :       0.2500    0.2500    0.1250
  band No.  band energies     occupation 
      1      -6.0881      2.00000
      2       1.8661      2.00000
      3       3.4814      2.00000
      4       5.3051      2.00000
      5       6.5012      0.00000
      6       8.2642      0.00000
      7       9.9674      0.00000
      8      11.0754      0.00000

 k-point    38 :      -0.2500   -0.1250   -0.2500
  band No.  band energies     occupation 
      1      -6.0894      2.00000
      2       1.8955      2.00000
      3       3.5196      2.00000
      4       4.8459      2.00000
      5       7.4576      0.00000
      6       8.3354      0.00000
      7       9.5094      0.00000
      8      10.1076      0.00000

 k-point    39 :       0.0000    0.1250    0.2500
  band No.  band energies     occupation 
      1      -6.0473      2.00000
      2       1.5374      2.00000
      3       3.7535      2.00000
      4       4.8507      2.00000
      5       6.4539      0.00000
      6       9.5876      0.00000
      7       9.9721      0.00000
      8      10.8614      0.00000

 k-point    40 :       0.2500    0.1250    0.0000
  band No.  band energies     occupation 
      1      -6.0732      2.00000
      2       1.9617      2.00000
      3       3.0608      2.00000
[...]
      7       7.4645      0.00000
      8       8.5589      0.00000

 k-point    95 :      -0.2500   -0.1250    0.2500
  band No.  band energies     occupation 
      1      -7.1948      2.00000
      2      -5.3005      2.00000
      3       0.1046      2.00000
      4       1.5257      2.00000
      5       3.3706      0.00000
      6       4.4836      0.00000
      7       6.9765      0.00000
      8       8.6001      0.00000

 k-point    96 :      -0.2500   -0.3750    0.5000
  band No.  band energies     occupation 
      1      -7.8475      2.00000
      2      -3.7624      2.00000
      3      -0.9330      2.00000
      4       0.2466      2.00000
      5       4.4295      0.00000
      6       5.6416      0.00000
      7       6.6607      0.00000
      8       7.3310      0.00000

 k-point    97 :       0.5000    0.1250    0.2500
  band No.  band energies     occupation 
      1      -7.8378      2.00000
      2      -3.4791      2.00000
      3      -1.3179      2.00000
      4       0.8806      2.00000
      5       4.2352      0.00000
      6       4.9909      0.00000
      7       6.6661      0.00000
      8       7.0068      0.00000

 k-point    98 :       0.1250   -0.1250   -0.3750
  band No.  band energies     occupation 
      1      -7.1711      2.00000
      2      -5.5317      2.00000
      3       0.6356      2.00000
      4       1.3460      2.00000
      5       3.0421      0.00000
      6       4.5796      0.00000
      7       7.4962      0.00000
      8       8.6835      0.00000

 k-point    99 :      -0.3750    0.1250   -0.1250
  band No.  band energies     occupation 
      1      -8.1167      2.00000
      2      -3.2663      2.00000
      3      -0.2635      2.00000
      4       0.2418      2.00000
      5       3.5651      0.00000
      6       5.4661      0.00000
      7       6.5162      0.00000
      8       7.8917      0.00000

 k-point   100 :      -0.1250   -0.3750    0.1250
  band No.  band energies     occupation 
      1      -8.5037      2.00000
      2      -3.0339      2.00000
      3      -0.5441      2.00000
      4       2.1076      0.09067
      5       3.8396      0.00000
      6       5.1710      0.00000
      7       6.5759      0.00000
      8       7.4766      0.00000

 k-point   101 :      -0.3750   -0.3750    0.1250
  band No.  band energies     occupation 
      1      -7.0828      2.00000
      2      -5.1821      2.00000
      3       0.3291      2.00000
      4       1.0736      2.00000
      5       2.9342      0.00000
      6       3.0327      0.00000
      7       7.9314      0.00000
      8       8.4519      0.00000

 k-point   102 :       0.1250   -0.3750   -0.3750
  band No.  band energies     occupation 
      1      -7.1036      2.00000
      2      -5.4512      2.00000
      3       0.6523      2.00000
      4       0.7305      2.00000
      5       2.3327      0.00000
      6       4.5198      0.00000
      7       8.2136      0.00000
      8       9.6245      0.00000

 k-point   103 :      -0.3750    0.1250   -0.3750
  band No.  band energies     occupation 
      1      -8.3755      2.00000
      2      -1.8769      2.00000
      3      -1.2840      2.00000
      4       0.0751      2.00000
      5       2.6749      0.00000
      6       6.5241      0.00000
      7       7.7262      0.00000
      8       9.1163      0.00000

 k-point   104 :      -0.3750    0.5000    0.0000
  band No.  band energies     occupation 
      1      -7.5868      2.00000
      2      -4.4130      2.00000
      3       0.2959      2.00000
      4       1.1685      2.00000
      5       2.0542      0.85798
      6       3.8475      0.00000
      7       8.1301      0.00000
      8       8.6591      0.00000

 k-point   105 :      -0.3750    0.0000    0.5000
  band No.  band energies     occupation 
      1      -8.1542      2.00000
      2      -2.4334      2.00000
      3      -1.8009      2.00000
      4       0.5494      2.00000
      5       3.5685      0.00000
      6       6.2690      0.00000
      7       6.6533      0.00000
      8       8.3650      0.00000

 k-point   106 :       0.1250    0.5000    0.5000
  band No.  band energies     occupation 
      1      -7.4002      2.00000
      2      -4.9580      2.00000
      3       0.2775      2.00000
      4       0.4261      2.00000
      5       2.7226      0.00000
      6       5.0580      0.00000
      7       7.7419      0.00000
      8       8.8077      0.00000

 k-point   107 :       0.5000    0.5000   -0.1250
  band No.  band energies     occupation 
      1      -7.3249      2.00000
      2      -4.6506      2.00000
      3      -0.1367      2.00000
      4       0.7108      2.00000
      5       3.1513      0.00000
      6       3.5200      0.00000
      7       7.3074      0.00000
      8       8.1286      0.00000

 k-point   108 :       0.0000    0.5000    0.3750
  band No.  band energies     occupation 
      1      -7.6575      2.00000
      2      -4.7307      2.00000
      3       0.0463      2.00000
      4       1.3278      2.00000
      5       3.0119      0.00000
      6       4.0514      0.00000
      7       8.2134      0.00000
      8       9.4093      0.00000

 k-point   109 :       0.5000    0.0000    0.3750
  band No.  band energies     occupation 
      1      -8.1277      2.00000
      2      -2.2058      2.00000
      3      -2.0116      2.00000
      4       0.5273      2.00000
      5       3.4159      0.00000
      6       6.2698      0.00000
      7       6.6408      0.00000
      8       8.1029      0.00000

 k-point   110 :       0.5000   -0.3750    0.0000
  band No.  band energies     occupation 
      1      -7.0297      2.00000
      2      -5.2108      2.00000
      3       0.9853      2.00000
      4       1.1506      2.00000
      5       1.6204      2.00000
      6       3.0324      0.00000
      7       8.2732      0.00000
      8       9.2863      0.00000

 k-point   111 :       0.5000    0.1250    0.5000
  band No.  band energies     occupation 
      1      -8.2205      2.00000
      2      -2.2608      2.00000
      3      -1.3980      2.00000
      4       0.3318      2.00000
      5       2.5410      0.00000
      6       6.1931      0.00000
      7       7.4131      0.00000
      8       8.9385      0.00000

 k-point   112 :       0.0000   -0.3750    0.5000
  band No.  band energies     occupation 
      1      -7.0897      2.00000
      2      -5.5876      2.00000
      3       0.8402      2.00000
      4       1.2434      2.00000
      5       2.1785      0.00022
      6       3.8159      0.00000
      7       8.6966      0.00000
      8      10.1893      0.00000

 k-point   113 :       0.3750    0.3750    0.3750
  band No.  band energies     occupation 
      1      -8.3520      2.00000
      2      -1.7843      2.00000
      3      -1.2502      2.00000
      4      -0.1378      2.00000
      5       2.7318      0.00000
      6       5.4625      0.00000
      7       8.6328      0.00000
      8       8.7620      0.00000

 k-point   114 :       0.3750    0.0000    0.0000
  band No.  band energies     occupation 
      1      -7.6623      2.00000
      2      -4.4403      2.00000
      3       0.8758      2.00000
      4       1.2080      2.00000
      5       1.9330      1.99884
      6       4.0114      0.00000
      7       7.4926      0.00000
      8       8.3829      0.00000

 k-point   115 :       0.0000    0.0000   -0.3750
  band No.  band energies     occupation 
      1      -7.7723      2.00000
      2      -4.8377      2.00000
      3       1.1266      2.00000
      4       1.3645      2.00000
      5       4.0131      0.00000
      6       4.1081      0.00000
      7       6.6637      0.00000
      8       7.9897      0.00000

 k-point   116 :       0.0000    0.3750    0.0000
  band No.  band energies     occupation 
      1      -9.0498      2.00000
      2      -1.2626      2.00000
      3      -1.0402      2.00000
      4       2.0581      0.77200
      5       3.9099      0.00000
      6       5.6449      0.00000
      7       7.9412      0.00000
      8       8.0700      0.00000

 k-point   117 :      -0.3750    0.3750    0.3750
  band No.  band energies     occupation 
      1      -7.6669      2.00000
      2      -3.6500      2.00000
      3      -1.5754      2.00000
      4       0.4735      2.00000
      5       4.0592      0.00000
      6       5.2514      0.00000
      7       6.4956      0.00000
      8       7.5421      0.00000

 k-point   118 :       0.3750   -0.3750    0.3750
  band No.  band energies     occupation 
      1      -8.3226      2.00000
      2      -1.7989      2.00000
      3      -1.2740      2.00000
      4      -0.4120      2.00000
      5       2.7250      0.00000
      6       6.0477      0.00000
      7       8.5697      0.00000
      8       8.9727      0.00000

 k-point   119 :       0.3750    0.3750   -0.3750
  band No.  band energies     occupation 
      1      -7.6605      2.00000
      2      -3.7167      2.00000
      3      -1.5469      2.00000
      4       0.4461      2.00000
      5       4.6606      0.00000
      6       5.1834      0.00000
      7       6.0908      0.00000
      8       7.5242      0.00000

 k-point   120 :       0.3750    0.0000   -0.2500
  band No.  band energies     occupation 
      1      -7.1985      2.00000
      2      -4.9140      2.00000
      3      -0.9292      2.00000
      4       1.3709      2.00000
      5       3.6129      0.00000
      6       4.7111      0.00000
      7       7.3707      0.00000
      8       7.9274      0.00000

 k-point   121 :      -0.3750    0.2500    0.2500
  band No.  band energies     occupation 
      1      -7.1835      2.00000
      2      -4.8404      2.00000
      3      -0.8860      2.00000
      4       1.1832      2.00000
      5       3.0273      0.00000
      6       4.6437      0.00000
      7       7.6162      0.00000
      8       8.1099      0.00000

 k-point   122 :       0.3750   -0.2500    0.0000
  band No.  band energies     occupation 
      1      -7.5896      2.00000
      2      -4.4532      2.00000
      3       0.2878      2.00000
      4       1.1001      2.00000
      5       1.9899      1.89884
      6       4.2255      0.00000
      7       8.0863      0.00000
      8       9.6758      0.00000

 k-point   123 :       0.0000    0.2500   -0.3750
  band No.  band energies     occupation 
      1      -7.7231      2.00000
      2      -4.7738      2.00000
      3       0.5889      2.00000
      4       1.3328      2.00000
      5       3.3741      0.00000
      6       4.1234      0.00000
      7       7.5863      0.00000
      8       8.5767      0.00000

 k-point   124 :       0.2500    0.0000   -0.3750
  band No.  band energies     occupation 
      1      -7.2506      2.00000
      2      -5.0800      2.00000
      3      -0.6884      2.00000
      4       1.4331      2.00000
      5       3.6750      0.00000
      6       5.8905      0.00000
      7       6.9689      0.00000
      8       7.7426      0.00000

 k-point   125 :      -0.2500   -0.2500    0.3750
  band No.  band energies     occupation 
      1      -7.2194      2.00000
      2      -5.0689      2.00000
      3      -0.6125      2.00000
      4       1.1115      2.00000
      5       3.6118      0.00000
      6       5.8504      0.00000
      7       6.9636      0.00000
      8       7.2119      0.00000

 k-point   126 :       0.2500   -0.3750    0.2500
  band No.  band energies     occupation 
      1      -8.6493      2.00000
      2      -1.3223      2.00000
      3      -0.8876      2.00000
      4      -0.4179      2.00000
      5       3.1093      0.00000
      6       7.1780      0.00000
      7       7.8560      0.00000
      8       8.8696      0.00000

 k-point   127 :       0.0000    0.3750   -0.2500
  band No.  band energies     occupation 
      1      -8.4146      2.00000
      2      -3.2781      2.00000
      3      -0.5608      2.00000
      4       1.5549      2.00000
      5       4.6840      0.00000
      6       4.8435      0.00000
      7       6.5897      0.00000
      8       7.8369      0.00000

 k-point   128 :      -0.2500    0.3750    0.0000
  band No.  band energies     occupation 
      1      -8.3417      2.00000
      2      -3.0386      2.00000
      3      -0.6619      2.00000
      4       1.3725      2.00000
      5       3.0489      0.00000
      6       5.5319      0.00000
      7       6.5590      0.00000
      8       9.3127      0.00000


--------------------------------------------------------------------------------------------------------


 soft charge-density along one line, spin component           1
         0         1         2         3         4         5         6         7         8         9
 total charge-density along one line

 pseudopotential strength for first ion, spin component:           1
 18.987  26.493   0.013  -0.022   0.018   0.025  -0.040   0.033
 26.493  36.969   0.018  -0.030   0.025   0.034  -0.054   0.045
  0.013   0.018   4.284  -0.007   0.006   7.985  -0.013   0.010
 -0.022  -0.030  -0.007   4.299  -0.015  -0.013   8.012  -0.027
  0.018   0.025   0.006  -0.015   4.292   0.010  -0.027   8.001
  0.025   0.034   7.985  -0.013   0.010  14.895  -0.024   0.019
 -0.040  -0.054  -0.013   8.012  -0.027  -0.024  14.944  -0.049
  0.033   0.045   0.010  -0.027   8.001   0.019  -0.049  14.923
 total augmentation occupancy for first ion, spin component:           1
  8.270  -3.440   0.677  -1.141   1.171  -0.258   0.378  -0.317
 -3.440   1.521  -0.350   0.450  -0.530   0.124  -0.160   0.145
  0.677  -0.350   3.488  -0.832   0.105  -0.831   0.285  -0.011
 -1.141   0.450  -0.832   4.968  -1.410   0.317  -1.302   0.444
  1.171  -0.530   0.105  -1.410   4.205  -0.048   0.487  -1.018
 -0.258   0.124  -0.831   0.317  -0.048   0.206  -0.098   0.013
  0.378  -0.160   0.285  -1.302   0.487  -0.098   0.353  -0.147
 -0.317   0.145  -0.011   0.444  -1.018   0.013  -0.147   0.254


------------------------ aborting loop because EDIFF is reached ----------------------------------------


    CHARGE:  cpu time    0.0625: real time    0.0688
    FORLOC:  cpu time    0.0000: real time    0.0018
    FORNL :  cpu time    0.4531: real time    0.4624
    STRESS:  cpu time    1.4219: real time    1.4187
    FORCOR:  cpu time    0.0469: real time    0.0446
    FORHAR:  cpu time    0.0156: real time    0.0131
    MIXING:  cpu time    0.0000: real time    0.0017
    OFIELD:  cpu time    0.0000: real time    0.0000

  FORCE on cell =-STRESS in cart. coord.  units (eV):
  Direction    XX          YY          ZZ          XY          YZ          ZX
  --------------------------------------------------------------------------------------
  Alpha Z     2.24806     2.24806     2.24806
  Ewald     -57.63406   -85.70429   -17.00970    44.39695     0.73331  -104.67152
  Hartree     9.30332    16.26716    20.54227    16.00611     9.65906   -25.30797
  E(xc)     -26.17750   -25.65688   -26.29505     0.01079     0.28077     0.41464
  Local     -53.38448   -38.16413  -100.02482   -55.55492   -15.50672   118.44612
  n-local    92.13408    80.29981    96.86749     3.11482    -4.60384   -14.98941
  augment   -12.85603   -12.61126   -12.82843     0.04441    -0.04375     0.09014
  Kinetic    58.47000    65.69316    55.15934    -2.42036     2.53175    10.73588
  Fock        0.00000     0.00000     0.00000     0.00000     0.00000     0.00000
  -------------------------------------------------------------------------------------
  Total      12.10338     2.37162    18.65915     5.59779    -6.94943   -15.28212
  in kB     323.75054    63.43791   499.10911   149.73407  -185.88856  -408.77783
  external pressure =      295.43 kB  Pullay stress =        0.00 kB


 VOLUME and BASIS-vectors are now :
 -----------------------------------------------------------------------------
  energy-cutoff  :      300.00
  volume of cell :       59.90
      direct lattice vectors                 reciprocal lattice vectors
    -0.063766324  2.946160346  2.459850903    -0.182563257  0.160612131  0.209431198
     3.026383853 -1.038357111  3.434441703     0.157383126 -0.098933959  0.122572897
     2.420241292  3.314608579 -0.432214563     0.211572649  0.127943351 -0.147753027

  length of vectors
     3.838592632  4.693886932  4.126864108     0.320915917  0.222669018  0.288033755


 FORCES acting on ions
    electron-ion (+dipol)            ewald-force                    non-local-force                 convergence-correction
 -----------------------------------------------------------------------------------------------
   0.247E+02 0.188E+02 -.352E+02   -.206E+02 -.184E+02 0.306E+02   -.170E+02 -.695E+01 0.198E+02   -.128E-02 -.186E-02 0.269E-02
   -.247E+02 -.188E+02 0.352E+02   0.206E+02 0.184E+02 -.306E+02   0.170E+02 0.695E+01 -.198E+02   0.129E-02 0.186E-02 -.269E-02
 -----------------------------------------------------------------------------------------------
   0.137E-04 -.851E-05 0.560E-05   0.000E+00 0.000E+00 0.000E+00   -.355E-14 0.888E-15 -.355E-14   0.385E-07 -.254E-07 0.323E-07


 POSITION                                       TOTAL-FORCE (eV/Angst)
 -----------------------------------------------------------------------------------
      3.65057      4.77114      3.68607       -12.796626     -6.538496     15.216151
      2.23453      1.92902      2.89497        12.796626      6.538496    -15.216151
 -----------------------------------------------------------------------------------
    total drift:                                0.000014     -0.000009      0.000006


--------------------------------------------------------------------------------------------------------



  FREE ENERGIE OF THE ION-ELECTRON SYSTEM (eV)
  ---------------------------------------------------
  free  energy   TOTEN  =        -3.64907508 eV

  energy  without entropy=       -3.64800628  energy(sigma->0) =       -3.64854068

 d Force = 0.6983866E+01[-0.181E+02, 0.321E+02]  d Energy =-0.2853014E+01 0.984E+01
 d Force = 0.7701242E+01[-0.495E+02, 0.649E+02]  d Ewald  =-0.5821693E+02 0.659E+02


--------------------------------------------------------------------------------------------------------


    POTLOK:  cpu time    0.1562: real time    0.1593


--------------------------------------------------------------------------------------------------------


 Steepest descent step on ions:
 trial-energy change:    2.853014  1 .order  -13.499700  -33.948021    6.948621
  (g-gl).g = 0.339E+02      g.g   = 0.339E+02  gl.gl    = 0.000E+00
 g(Force)  = 0.207E+02   g(Stress)= 0.132E+02 ortho     = 0.000E+00
 gamma     =   0.00000
 trial     =   1.00000
 opt step  =   0.83009  (harmonic =   0.83009) maximal distance =0.45393326
 next E    =   -20.592098   (d E  = -14.09001)


--------------------------------------------------------------------------------------------------------


     LOOP+:  cpu time   12.9531: real time   12.9707
    4ORBIT:  cpu time    0.0000: real time    0.0000

 total amount of memory used by VASP MPI-rank0    49064. kBytes
=======================================================================

   base      :      30000. kBytes
   nonlr-proj:        752. kBytes
   fftplans  :       3916. kBytes
   grid      :       6018. kBytes
   one-center:          6. kBytes
   wavefun   :       8372. kBytes

  
  
 General timing and accounting informations for this job:
 ========================================================
  
                  Total CPU time used (sec):       29.875
                            User time (sec):       29.500
                          System time (sec):        0.375
                         Elapsed time (sec):       29.783
  
                   Maximum memory used (kb):       48788.
                   Average memory used (kb):           0.
  
                          Minor page faults:        32093
                          Major page faults:            0
                 Voluntary context switches:            0
